Program Version,EnergyPlus, Version 8.9.0-40101eaafd, YMD=2022.11.22 12:41
1,5,Environment Title[],Latitude[deg],Longitude[deg],Time Zone[],Elevation[m]
2,8,Day of Simulation[],Month[],Day of Month[],DST Indicator[1=yes 0=no],Hour[],StartMinute[],EndMinute[],DayType
3,5,Cumulative Day of Simulation[],Month[],Day of Month[],DST Indicator[1=yes 0=no],DayType  ! When Daily Report Variables Requested
4,2,Cumulative Days of Simulation[],Month[]  ! When Monthly Report Variables Requested
5,1,Cumulative Days of Simulation[] ! When Run Period Report Variables Requested
6,1,Calendar Year of Simulation[] ! When Annual Report Variables Requested
7,1,BLOCK1:ZONE1,Zone Mean Air Temperature [C] !Hourly
8,1,BLOCK2:ZONE1,Zone Mean Air Temperature [C] !Hourly
9,1,BLOCK3:ZONE1,Zone Mean Air Temperature [C] !Hourly
96,1,BLOCK1:ZONE1,Zone Air Relative Humidity [%] !Hourly
135,1,BLOCK2:ZONE1,Zone Air Relative Humidity [%] !Hourly
174,1,BLOCK3:ZONE1,Zone Air Relative Humidity [%] !Hourly
243,1,AIR LOOP AHU EXTRACT FAN,Fan Electric Energy [J] !Hourly
292,1,AIR LOOP AHU SUPPLY FAN,Fan Electric Energy [J] !Hourly
419,1,AIR LOOP AHU UNITARY COOLING COIL DX COOLING COIL,Cooling Coil Total Cooling Energy [J] !Hourly
470,1,BOILER,Boiler Electric Energy [J] !Hourly
520,1,HW LOOP SUPPLY PUMP,Pump Electric Energy [J] !Hourly
245,1,Electricity:Facility [J] !Hourly
246,7,Electricity:Facility [J] !Daily [Value,Min,Hour,Minute,Max,Hour,Minute]
247,9,Electricity:Facility [J] !Monthly [Value,Min,Day,Hour,Minute,Max,Day,Hour,Minute]
249,11,Electricity:Facility [J] !RunPeriod [Value,Min,Month,Day,Hour,Minute,Max,Month,Day,Hour,Minute]
536,1,Carbon Equivalent:Facility [kg] !Hourly
537,7,Carbon Equivalent:Facility [kg] !Daily [Value,Min,Hour,Minute,Max,Hour,Minute]
538,9,Carbon Equivalent:Facility [kg] !Monthly [Value,Min,Day,Hour,Minute,Max,Day,Hour,Minute]
540,11,Carbon Equivalent:Facility [kg] !RunPeriod [Value,Min,Month,Day,Hour,Minute,Max,Month,Day,Hour,Minute]
End of Data Dictionary
1,EXAMPLE (O1-O1:31-12),  52.10,   5.18,   0.00,   1.90
2,1, 1, 1, 0, 1, 0.00,60.00,Sunday
7,13.999922433799246
8,13.999961975181652
9,13.999794094195656
96,40.270122144757568
135,40.26860033544353
174,40.25704551293184
243,1785531.0118012927
292,1785531.0118012927
419,0.0
470,65487032.7864509
520,18462.744364156846
245,69159821.22448616
536,0.0
2,1, 1, 1, 0, 2, 0.00,60.00,Sunday
7,13.999947186829962
8,13.999958639435384
9,14.000046095906792
96,40.01682034854676
135,40.01249267176862
174,39.99666987975104
243,1774722.6861926204
292,1774722.6861926204
419,0.0
470,64928508.18760044
520,18300.854391976307
245,69461977.07744746
536,0.0
2,1, 1, 1, 0, 3, 0.00,60.00,Sunday
7,13.999963719936272
8,13.99989929548985
9,13.999902229569154
96,39.99992788718383
135,39.9929433327734
174,39.98515469380869
243,1762403.0685249509
292,1762403.0685249509
419,0.0
470,64273796.57114141
520,18105.664551062913
245,68996610.85383187
536,0.0
2,1, 1, 1, 0, 4, 0.00,60.00,Sunday
7,13.999991010919786
8,13.999929977892342
9,13.999913439331174
96,39.99994681507225
135,39.992092760089949
174,39.9875547489494
243,1750321.2114806469
292,1750321.2114806469
419,0.0
470,63690507.922852817
520,17937.231655465283
245,68265122.66600934
536,0.0
2,1, 1, 1, 0, 5, 0.00,60.00,Sunday
7,13.999923951020403
8,14.000016514089534
9,13.9999397363813
96,40.00001453968342
135,39.99199233339555
174,39.98825043854126
243,1738695.4025964549
292,1738695.4025964549
419,0.0
470,63162763.85319477
520,17779.70836151781
245,67614217.49580884
536,0.0
2,1, 1, 1, 0, 6, 0.00,60.00,Sunday
7,13.999912028752258
8,13.999978556516658
9,13.99991171771177
96,39.99995412626288
135,39.99257380360703
174,39.98867721983682
243,1727640.2709461428
292,1727640.2709461428
419,0.0
470,62647399.62336804
520,17622.887007421516
245,66999847.43356398
536,0.0
2,1, 1, 1, 0, 7, 0.00,60.00,Sunday
7,13.999920894162182
8,13.999925129318422
9,13.999985951683693
96,40.000013273216818
135,39.993552801916219
174,39.988960969019768
243,1716539.4751011932
292,1716539.4751011932
419,0.0
470,62126730.75689473
520,17464.171313387338
245,66375407.41994628
536,0.0
2,1, 1, 1, 0, 8, 0.00,60.00,Sunday
7,14.000026145486079
8,13.999903663730928
9,13.99986828985294
96,39.99999904250572
135,39.99448240426237
174,39.98914841268734
243,1705760.6592478217
292,1705760.6592478217
419,0.0
470,61608117.848416138
520,17305.120252121793
245,65746440.55144576
536,0.0
2,1, 1, 1, 0, 9, 0.00,60.00,Sunday
7,14.000013672576646
8,13.999996418524887
9,13.999986643320494
96,39.99997060664159
135,39.99504152096022
174,39.98851354089589
243,1695022.3639887577
292,1695022.3639887577
419,0.0
470,61101291.795666288
520,17150.103234390168
245,65146243.53893298
536,0.0
2,1, 1, 1, 0,10, 0.00,60.00,Sunday
7,13.999952532148575
8,14.000040898702869
9,13.999893661426033
96,40.00001211641863
135,39.99567178267969
174,39.98806466862975
243,1684839.060716288
292,1684839.060716288
419,0.0
470,60587246.94729715
520,16991.782705097918
245,64514380.61384711
536,0.0
2,1, 1, 1, 0,11, 0.00,60.00,Sunday
7,13.999900575993614
8,13.999947370462176
9,14.00001182617056
96,39.99996532783919
135,39.99641648735086
174,39.98766277457779
243,1674871.9491543284
292,1674871.9491543284
419,0.0
470,60078467.59747114
520,16833.09002479769
245,63976494.12289589
536,0.0
2,1, 1, 1, 0,12, 0.00,60.00,Sunday
7,14.0000169342516
8,13.999903653797935
9,13.999894666021782
96,40.00002418207336
135,39.99760895572942
174,39.988560738637087
243,1665084.3191573092
292,1665084.3191573092
419,0.0
470,59572107.277256619
520,16676.26494751406
245,63345746.92378244
536,0.0
2,1, 1, 1, 0,13, 0.00,60.00,Sunday
7,14.000033239477885
8,14.000026208825096
9,14.000051147606316
96,39.99996018489841
135,39.99820439846061
174,39.98745037237301
243,1655355.2950237538
292,1655355.2950237538
419,0.0
470,59089322.86484122
520,16526.950428825752
245,62711598.282240528
536,0.0
2,1, 1, 1, 0,14, 0.00,60.00,Sunday
7,13.999948651019626
8,13.999995212909074
9,13.99995377855168
96,39.99998342378485
135,39.9989944189255
174,39.98654898148893
243,1646879.6789220009
292,1646879.6789220009
419,0.0
470,58622082.95366899
520,16380.731290263442
245,62157752.768196079
536,0.0
2,1, 1, 1, 0,15, 0.00,60.00,Sunday
7,13.999885669736989
8,13.99986902552685
9,14.000049926655672
96,40.0035397600768
135,40.003329372851919
174,39.98902645128098
243,1638893.1753843437
292,1638893.1753843437
419,0.0
470,58189765.615309
520,16246.284415106262
245,61576153.12639626
536,0.0
2,1, 1, 1, 0,16, 0.00,60.00,Sunday
7,14.000037352249292
8,14.000054246169548
9,13.999961023038712
96,40.02262275137903
135,40.0228373665947
174,40.00879596245421
243,1630965.1326597867
292,1630965.1326597867
419,0.0
470,57784274.35357796
520,16122.285016222104
245,61137536.498631577
536,0.0
2,1, 1, 1, 0,17, 0.00,60.00,Sunday
7,13.99991152668012
8,13.999966801285469
9,13.999932187831197
96,40.06605685428516
135,40.066513326745269
174,40.052540930296149
243,1623683.026774225
292,1623683.026774225
419,0.0
470,57366658.49685851
520,15992.233420840641
245,60704782.870788108
536,0.0
2,1, 1, 1, 0,18, 0.00,60.00,Sunday
7,14.000014960581576
8,13.999898608952691
9,13.999959169186049
96,40.13249448270706
135,40.13353069302234
174,40.12039596642724
243,1616301.3039671318
292,1616301.3039671318
419,0.0
470,56963937.55856576
520,15867.432098354087
245,60286745.31342692
536,0.0
2,1, 1, 1, 0,19, 0.00,60.00,Sunday
7,13.999981621992811
8,14.00002283429615
9,13.99992575045409
96,40.229488215013578
135,40.23003843204292
174,40.21891790734556
243,1609026.5371288344
292,1609026.5371288344
419,0.0
470,56562277.39698478
520,15742.825125899206
245,59869983.12448596
536,0.0
2,1, 1, 1, 0,20, 0.00,60.00,Sunday
7,13.99984139344168
8,13.999881004039488
9,14.000039515365808
96,40.35090127118886
135,40.35116711663275
174,40.3410339998497
243,1602139.504970258
292,1602139.504970258
419,0.0
470,56158065.173710759
520,15615.94808620033
245,59451438.69876242
536,0.0
2,1, 1, 1, 0,21, 0.00,60.00,Sunday
7,14.000050663191463
8,14.000026021201754
9,13.999959160597364
96,40.47890747434205
135,40.478837624808289
174,40.470900933932067
243,1594763.7127041016
292,1594763.7127041016
419,0.0
470,55752745.39604946
520,15490.598805612726
245,59030808.87184004
536,0.0
2,1, 1, 1, 0,22, 0.00,60.00,Sunday
7,13.99992011998362
8,13.999958230391402
9,13.999927529379792
96,40.59585993047183
135,40.595005282757067
174,40.58799112592407
243,1588043.3181478196
292,1588043.3181478196
419,0.0
470,55339206.48866972
520,15359.410760170938
245,58603255.417163219
536,0.0
2,1, 1, 1, 0,23, 0.00,60.00,Sunday
7,13.999967202852576
8,13.999952790399322
9,13.999933423373938
96,40.6918336933271
135,40.69036473914472
174,40.68366536392339
243,1581504.4333819254
292,1581504.4333819254
419,0.0
470,54957777.553523439
520,15241.278295797812
245,58208221.73331104
536,0.0
2,1, 1, 1, 0,24, 0.00,60.00,Sunday
7,13.999954659477412
8,13.999988277538782
9,13.99998274127991
96,40.78059840758273
135,40.77827166358528
174,40.772070162373527
243,1575274.5520710708
292,1575274.5520710708
419,0.0
470,54596101.67665871
520,15129.16106391409
245,57833585.780727338
536,0.0
3,1, 1, 1, 0,Sunday
246,1521174172.4079679,1920655.3698594934,24,48,2337199.86533888, 2,16
537,0.0,0.0, 1, 2,0.0, 1, 2
2,2, 1, 2, 0, 1, 0.00,60.00,Monday
7,13.999901002019012
8,13.999892672087386
9,14.000001947973816
96,40.85001553249044
135,40.84713887140963
174,40.8411366373962
243,1569400.3089310658
292,1569400.3089310658
419,0.0
470,54234264.13470845
520,15017.00730082145
245,57459498.69175616
536,0.0
2,2, 1, 2, 0, 2, 0.00,60.00,Monday
7,14.000018060804673
8,14.00001560323421
9,13.999897871509875
96,40.919858768851629
135,40.916494933049978
174,40.91154508290189
243,1563479.1572047533
292,1563479.1572047533
419,0.0
470,53890004.495285179
520,14911.080551660994
245,57102920.305923078
536,0.0
2,2, 1, 2, 0, 3, 0.00,60.00,Monday
7,13.999870580951896
8,13.999868290752362
9,13.99993827138007
96,40.980775617546239
135,40.9768604006855
174,40.97154007222598
243,1558107.42223007
292,1558107.42223007
419,0.0
470,53543316.60590638
520,14803.599138819767
245,56745007.85835443
536,0.0
2,2, 1, 2, 0, 4, 0.00,60.00,Monday
7,14.000014946603696
8,14.000011056341533
9,14.00000657660995
96,41.03122338320413
135,41.026836258441949
174,41.02176801395809
243,1551957.5385960539
292,1551957.5385960539
419,0.0
470,53187045.10280907
520,14693.782755427032
245,56375942.30622895
536,0.0
2,2, 1, 2, 0, 5, 0.00,60.00,Monday
7,13.999866507753316
8,13.999867938356678
9,13.999989266035252
96,41.101135207572919
135,41.09640903512737
174,41.09205883780976
243,1546348.4113573295
292,1546348.4113573295
419,0.0
470,52804029.784116659
520,14571.580674884346
245,55981172.67459743
536,0.0
2,2, 1, 2, 0, 6, 0.00,60.00,Monday
7,14.000034884429608
8,14.00003554914672
9,13.999908301585333
96,41.161115661120359
135,41.156038870039228
174,41.15303042889313
243,1540393.9552979896
292,1540393.9552979896
419,0.0
470,52441045.29842864
520,14458.663110678926
245,55605773.56615749
536,0.0
2,2, 1, 2, 0, 7, 0.00,60.00,Monday
7,13.999883509284809
8,13.99988785860404
9,13.999956291738203
96,41.24749504716159
135,41.24214851863333
174,41.240160840440669
243,1535177.1889847485
292,1535177.1889847485
419,0.0
470,52086194.924383278
520,14346.9804646095
245,55239993.48429353
536,0.0
2,2, 1, 2, 0, 8, 0.00,60.00,Monday
7,14.000029838868123
8,14.00006245297348
9,14.000009872361867
96,41.365222486305118
135,41.35947950067666
174,41.35975494985205
243,1529961.1053655956
292,1529961.1053655956
419,0.0
470,51788407.438727628
520,14257.499282187768
245,54931361.29323674
536,0.0
2,2, 1, 2, 0, 9, 0.00,60.00,Monday
7,13.999904337418503
8,13.999875132820984
9,13.999947996508073
96,41.4820627117585
135,41.47588813930978
174,41.47723590127448
243,1524861.4130797748
292,1524861.4130797748
419,0.0
470,51420845.37662891
520,14142.637911677906
245,54553085.71941842
536,0.0
2,2, 1, 2, 0,10, 0.00,60.00,Monday
7,14.000009375964359
8,14.000015396698606
9,13.999917800498159
96,41.63850279288901
135,41.63196994589939
174,41.63685604987257
243,1518767.7132412629
292,1518767.7132412629
419,0.0
470,51019405.47143737
520,14015.272991355985
245,54138894.363677758
536,0.0
2,2, 1, 2, 0,11, 0.00,60.00,Monday
7,13.999909619248952
8,13.999913739419665
9,13.999898016244437
96,41.81742897002224
135,41.81046730700029
174,41.819070751573217
243,1512982.2272743383
292,1512982.2272743383
419,0.0
470,50595106.59318733
520,13878.490301970824
245,53702425.465551819
536,0.0
2,2, 1, 2, 0,12, 0.00,60.00,Monday
7,13.999950828916525
8,13.999999076812549
9,13.999995168317599
96,42.03601446337512
135,42.02853980539596
174,42.04209959212838
243,1507490.4569925154
292,1507490.4569925154
419,0.0
470,50235341.946900967
520,13764.767646435068
245,53331171.03914259
536,0.0
2,2, 1, 2, 0,13, 0.00,60.00,Monday
7,13.999930889253982
8,13.999889600661259
9,13.999983163137483
96,42.2058786598517
135,42.19743117867684
174,42.21260478403979
243,1502592.9484676116
292,1502592.9484676116
419,0.0
470,49882235.70441299
520,13653.610304701535
245,52967772.85808302
536,0.0
2,2, 1, 2, 0,14, 0.00,60.00,Monday
7,13.99993906939022
8,13.999993207842076
9,13.999940109076017
96,42.32238763959531
135,42.31235731346418
174,42.32780155424785
243,1497576.8105801156
292,1497576.8105801156
419,0.0
470,49533853.852371457
520,13544.652596352906
245,52608868.67072145
536,0.0
2,2, 1, 2, 0,15, 0.00,60.00,Monday
7,13.999966134054946
8,13.999902363910867
9,13.999860521843277
96,42.37395746817834
135,42.36273512147452
174,42.37574687190438
243,1493129.1813774955
292,1493129.1813774955
419,0.0
470,49214208.926598
520,13445.755551572609
245,52279879.486381079
536,0.0
2,2, 1, 2, 0,16, 0.00,60.00,Monday
7,13.999986515961926
8,14.00000750903578
9,14.000042312259192
96,42.40644085102076
135,42.393940347447578
174,42.404937532943268
243,1488491.4741622376
292,1488491.4741622376
419,0.0
470,48912579.711750719
520,13354.352192574815
245,51968552.69295969
536,0.0
2,2, 1, 2, 0,17, 0.00,60.00,Monday
7,13.999876012284434
8,13.999932696258556
9,13.999948651472242
96,42.434579789250758
135,42.42128021284359
174,42.431800826993107
243,1484478.5015303
292,1484478.5015303
419,0.0
470,48609694.79655189
520,13260.803813352577
245,51657215.79685243
536,0.0
2,2, 1, 2, 0,18, 0.00,60.00,Monday
7,13.99998483218906
8,13.999947937926152
9,13.999853732580148
96,42.50901409156897
135,42.495911096973937
174,42.508415427634847
243,1480233.307762999
292,1480233.307762999
419,0.0
470,48310873.33508739
520,13169.97703913451
245,51349484.710505548
536,0.0
2,2, 1, 2, 0,19, 0.00,60.00,Monday
7,13.999876341516066
8,13.99995984993668
9,13.999999962511226
96,42.634749197019569
135,42.62129691746226
174,42.637008751946208
243,1475964.1919278012
292,1475964.1919278012
419,0.0
470,48009092.88455935
520,13077.439740766717
245,51038741.45966449
536,0.0
2,2, 1, 2, 0,20, 0.00,60.00,Monday
7,13.99997577085076
8,13.99991240657526
9,13.999943622727749
96,42.797184874359597
135,42.784174125642127
174,42.80404115537206
243,1471677.4112180493
292,1471677.4112180493
419,0.0
470,47697100.768044468
520,12981.927106902573
245,50717736.623807918
536,0.0
2,2, 1, 2, 0,21, 0.00,60.00,Monday
7,13.999926213378198
8,13.999964328262442
9,13.999899070408637
96,42.96435810213182
135,42.95052920172191
174,42.97384532565795
243,1467198.688967436
292,1467198.688967436
419,0.0
470,47357947.53353863
520,12876.92749687776
245,50369146.93065672
536,0.0
2,2, 1, 2, 0,22, 0.00,60.00,Monday
7,13.999994229654254
8,13.999906797169153
9,13.999886535575241
96,43.108816081971607
135,43.09441715735202
174,43.11903971911421
243,1462842.5349931198
292,1462842.5349931198
419,0.0
470,47026427.6569545
520,12773.81173988279
245,50028445.57148949
536,0.0
2,2, 1, 2, 0,23, 0.00,60.00,Monday
7,13.99994544065302
8,13.999960770930662
9,13.999991845884951
96,43.19749802580106
135,43.18151782463527
174,43.20541967030496
243,1458580.3443702332
292,1458580.3443702332
419,0.0
470,46706444.98133679
520,12674.263851310961
245,49699485.243210088
536,0.0
2,2, 1, 2, 0,24, 0.00,60.00,Monday
7,13.99993752820399
8,13.999967066027658
9,13.999967101178898
96,43.24024015543223
135,43.22296163725416
174,43.24541516376874
243,1454667.6431377179
292,1454667.6431377179
419,0.0
470,46406112.43606555
520,12581.482561357243
245,49390902.12662417
536,0.0
3,2, 1, 2, 0,Monday
246,1279243478.9392954,1637486.6811688739,24,58,1921261.9788128886, 1, 2
537,0.0,0.0, 1, 2,0.0, 1, 2
2,3, 1, 3, 0, 1, 0.00,60.00,Tuesday
7,13.999972139114166
8,13.999984015900026
9,13.999880647409743
96,43.24187761622696
135,43.22367915662665
174,43.24425370348345
243,1450920.8218034392
292,1450920.8218034392
419,0.0
470,46119418.90770279
520,12494.558205053268
245,49096310.39500682
536,0.0
2,3, 1, 3, 0, 2, 0.00,60.00,Tuesday
7,13.99986441279491
8,13.999954874032613
9,13.999965091834828
96,43.25699442996036
135,43.23835029884021
174,43.25785977173055
243,1447361.7616540099
292,1447361.7616540099
419,0.0
470,45844489.37254459
520,12411.57008340471
245,48813874.839233148
536,0.0
2,3, 1, 3, 0, 3, 0.00,60.00,Tuesday
7,14.000007696933784
8,13.999871609275897
9,13.999987313589429
96,43.286802024531507
135,43.26860106882369
174,43.28806369792991
243,1443957.9786115392
292,1443957.9786115392
419,0.0
470,45597249.35354379
520,12338.594158637577
245,48559479.80749481
536,0.0
2,3, 1, 3, 0, 4, 0.00,60.00,Tuesday
7,13.999966231133606
8,14.000003562742738
9,13.999840598200617
96,43.342741633803168
135,43.32418933510454
174,43.34540324763342
243,1440610.6317153027
292,1440610.6317153027
419,0.0
470,45333976.18567911
520,12259.743384179063
245,48289140.546223308
536,0.0
2,3, 1, 3, 0, 5, 0.00,60.00,Tuesday
7,13.999953389921055
8,13.99995900335094
9,14.000018879827979
96,43.397011302326337
135,43.378342013484459
174,43.39955360872083
243,1436968.4687661504
292,1436968.4687661504
419,0.0
470,45051133.68831322
520,12173.260683515911
245,47998612.64386287
536,0.0
2,3, 1, 3, 0, 6, 0.00,60.00,Tuesday
7,13.99991918857291
8,13.99995215899177
9,13.999950729172245
96,43.47375536837567
135,43.45481503653339
174,43.47723720571326
243,1433605.545803605
292,1433605.545803605
419,0.0
470,44772604.5985856
520,12087.355291375852
245,47712961.6937516
536,0.0
2,3, 1, 3, 0, 7, 0.00,60.00,Tuesday
7,13.999932759951184
8,13.999917448303787
9,13.999866628665128
96,43.57170909248498
135,43.552761037522127
174,43.576638124197788
243,1430261.2944988022
292,1430261.2944988022
419,0.0
470,44491431.08037755
520,12001.631967645255
245,47424700.544544149
536,0.0
2,3, 1, 3, 0, 8, 0.00,60.00,Tuesday
7,14.000003141561788
8,13.999959877290225
9,14.000015339283975
96,43.630649877590418
135,43.61101998229079
174,43.63417893636452
243,1426789.9480071474
292,1426789.9480071474
419,0.0
470,44227311.68788173
520,11921.767307645356
245,47153263.92277446
536,0.0
2,3, 1, 3, 0, 9, 0.00,60.00,Tuesday
7,13.999950236323583
8,13.9999786325768
9,13.999932730003899
96,43.61453879397706
135,43.5935469676363
174,43.614109652201019
243,1423750.252441768
292,1423750.252441768
419,0.0
470,43966078.461075749
520,11841.391011515421
245,46885579.22224574
536,0.0
2,3, 1, 3, 0,10, 0.00,60.00,Tuesday
7,13.999957920757252
8,13.999962396920493
9,13.999886789666253
96,43.5193122712304
135,43.497118453662718
174,43.51286224447422
243,1420539.778146685
292,1420539.778146685
419,0.0
470,43687184.824612658
520,11754.991059936314
245,46599866.4734333
536,0.0
2,3, 1, 3, 0,11, 0.00,60.00,Tuesday
7,13.99993069762664
8,13.999928459959304
9,14.000041327631655
96,43.36143653876632
135,43.338419683323838
174,43.34798976108108
243,1417117.5981352716
292,1417117.5981352716
419,0.0
470,43389756.01001931
520,11662.366930479831
245,46295167.86046408
536,0.0
2,3, 1, 3, 0,12, 0.00,60.00,Tuesday
7,14.00003143557208
8,14.000053323414388
9,13.999911583009846
96,43.13575180495663
135,43.112128109165059
174,43.11631875753533
243,1414095.3194623003
292,1414095.3194623003
419,0.0
470,43137479.521399509
520,11584.268634985381
245,46036486.13785367
536,0.0
2,3, 1, 3, 0,13, 0.00,60.00,Tuesday
7,13.99998768589519
8,13.999982355520928
9,13.99998128151221
96,42.93798428337257
135,42.915231042235777
174,42.91592784175059
243,1411373.5338513982
292,1411373.5338513982
419,0.0
470,42898763.74202399
520,11511.17159135836
245,45791986.06908375
536,0.0
2,3, 1, 3, 0,14, 0.00,60.00,Tuesday
7,13.99993923747923
8,13.999928334792625
9,14.000016143571932
96,42.75584371988134
135,42.73412732989352
174,42.732356343521448
243,1408532.4282813359
292,1408532.4282813359
419,0.0
470,42639927.530692119
520,11430.729477229223
245,45527096.75983356
536,0.0
2,3, 1, 3, 0,15, 0.00,60.00,Tuesday
7,13.999995588783813
8,14.000058820538225
9,13.999899670527239
96,42.577326277794778
135,42.55641901667946
174,42.552921631246658
243,1405815.9148389768
292,1405815.9148389768
419,0.0
470,42405120.06124233
520,11359.193690394459
245,45286520.99906409
536,0.0
2,3, 1, 3, 0,16, 0.00,60.00,Tuesday
7,14.000034942945128
8,13.999933946663634
9,14.000065652099276
96,42.38403063222266
135,42.36454878982259
174,42.35736360465622
243,1403562.9602905913
292,1403562.9602905913
419,0.0
470,42226246.42691342
520,11305.66398441858
245,45102886.90555227
536,0.0
2,3, 1, 3, 0,17, 0.00,60.00,Tuesday
7,13.999893779847247
8,14.000011913827759
9,13.999962924707717
96,42.226357896696978
135,42.20774830308599
174,42.19997884259428
243,1401479.0954938539
292,1401479.0954938539
419,0.0
470,42035515.33979804
520,11250.643854143525
245,44907718.520809609
536,0.0
2,3, 1, 3, 0,18, 0.00,60.00,Tuesday
7,14.00006629492095
8,13.999988331399415
9,13.999972419533249
96,42.057369296711168
135,42.04049597623827
174,42.03092656591074
243,1399217.512336742
292,1399217.512336742
419,0.0
470,41855944.95583964
520,11197.324238730396
245,44723369.58147852
536,0.0
2,3, 1, 3, 0,19, 0.00,60.00,Tuesday
7,13.999916283636896
8,13.999957687971423
9,14.000030690341135
96,41.8669773704813
135,41.850520410256837
174,41.83787563098228
243,1396990.4689765215
292,1396990.4689765215
419,0.0
470,41645897.972452368
520,11134.056819675508
245,44508568.673497188
536,0.0
2,3, 1, 3, 0,20, 0.00,60.00,Tuesday
7,14.000058222461416
8,14.000036365692603
9,13.999933137815609
96,41.69464706411214
135,41.67959170765958
174,41.66566969366419
243,1394564.531379242
292,1394564.531379242
419,0.0
470,41435701.34102632
520,11070.433519413395
245,44293219.62877823
536,0.0
2,3, 1, 3, 0,21, 0.00,60.00,Tuesday
7,13.999990073119959
8,13.999925215317222
9,13.999978442712083
96,41.554023877869209
135,41.54058556847388
174,41.52557793969863
243,1392143.5481276422
292,1392143.5481276422
419,0.0
470,41198328.12089806
520,10996.333223338997
245,44050662.578822847
536,0.0
2,3, 1, 3, 0,22, 0.00,60.00,Tuesday
7,13.999917132892575
8,14.00000774819588
9,14.00000634729359
96,41.46273531081485
135,41.45053490335493
174,41.4364545034578
243,1389496.7350909194
292,1389496.7350909194
419,0.0
470,40948814.67888001
520,10918.671503860325
245,43795496.153140719
536,0.0
2,3, 1, 3, 0,23, 0.00,60.00,Tuesday
7,14.000067279970502
8,14.000023390230018
9,13.999962785806045
96,41.41521681214513
135,41.405307800381248
174,41.393659081070499
243,1387115.9778864566
292,1387115.9778864566
419,0.0
470,40739881.410157959
520,10854.148242703053
245,43581500.77024039
536,0.0
2,3, 1, 3, 0,24, 0.00,60.00,Tuesday
7,13.99995844234763
8,13.999896978585216
9,13.99999145922118
96,41.45196348499986
135,41.44438929057187
174,41.43717571383321
243,1384849.527565277
292,1384849.527565277
419,0.0
470,40507600.92479368
520,10782.728720471498
245,43344353.29984843
536,0.0
3,3, 1, 3, 0,Tuesday
246,1105778824.0270379,1440481.4594140624,24,56,1644735.0162029463, 1, 4
537,0.0,0.0, 1, 2,0.0, 1, 2
2,4, 1, 4, 0, 1, 0.00,60.00,Wednesday
7,13.999896566815455
8,14.000039103295756
9,13.999900713280772
96,41.56487219242616
135,41.55867592755779
174,41.55752731311613
243,1382303.957746538
292,1382303.957746538
419,0.0
470,40256653.174951378
520,10703.974852148289
245,43087951.62631237
536,0.0
2,4, 1, 4, 0, 2, 0.00,60.00,Wednesday
7,14.000024771942629
8,13.999933132791549
9,14.000024082830102
96,41.704488684667968
135,41.699781329089237
174,41.70234803649799
243,1379818.4032237996
292,1379818.4032237996
419,0.0
470,40023890.20526909
520,10630.489186324414
245,42849880.40278945
536,0.0
2,4, 1, 4, 0, 3, 0.00,60.00,Wednesday
7,13.999903734216002
8,13.999948541970828
9,13.999950247691011
96,41.82790037719396
135,41.82256745722342
174,41.82779728359924
243,1377827.119402557
292,1377827.119402557
419,0.0
470,39817583.360855158
520,10566.281797164116
245,42639292.90240998
536,0.0
2,4, 1, 4, 0, 4, 0.00,60.00,Wednesday
7,13.99995439774368
8,13.999990598602182
9,13.999879251958193
96,41.938956305439429
135,41.933439711191898
174,41.94060270385291
243,1375913.1271704424
292,1375913.1271704424
419,0.0
470,39636575.08148992
520,10511.026445811554
245,42454196.03762721
536,0.0
2,4, 1, 4, 0, 5, 0.00,60.00,Wednesday
7,13.999985873131133
8,13.999889296374933
9,14.000070013036611
96,42.089078489161348
135,42.08391667850201
174,42.09335702341475
243,1373898.9554696629
292,1373898.9554696629
419,0.0
470,39450342.0403693
520,10454.153814729305
245,42263666.371369037
536,0.0
2,4, 1, 4, 0, 6, 0.00,60.00,Wednesday
7,13.999895074508727
8,14.000001633164033
9,13.999847316388069
96,42.30502441557992
135,42.30005215430232
174,42.31560369976122
243,1372232.0385410765
292,1372232.0385410765
419,0.0
470,39277543.10846959
520,10401.27601114015
245,42087284.43790444
536,0.0
2,4, 1, 4, 0, 7, 0.00,60.00,Wednesday
7,14.000000525364838
8,13.999891989131822
9,13.999942649845624
96,42.540823934457247
135,42.53605517197563
174,42.5564035924031
243,1370438.993798245
292,1370438.993798245
419,0.0
470,39111594.343282978
520,10351.159707730993
245,41917510.85287364
536,0.0
2,4, 1, 4, 0, 8, 0.00,60.00,Wednesday
7,13.99987113780209
8,13.999981019448019
9,14.00001441674225
96,42.77742485943837
135,42.77162923197156
174,42.79604006622501
243,1368589.2803720774
292,1368589.2803720774
419,0.0
470,38930020.298439089
520,10295.487733499793
245,41731975.20432104
536,0.0
2,4, 1, 4, 0, 9, 0.00,60.00,Wednesday
7,14.00002108457121
8,13.999884391521024
9,13.999800073299758
96,43.0033388239021
135,42.99705479358771
174,43.02563672319868
243,1366809.5818236229
292,1366809.5818236229
419,0.0
470,38736854.648331228
520,10235.708878670403
245,41534970.53483155
536,0.0
2,4, 1, 4, 0,10, 0.00,60.00,Wednesday
7,13.999857915407878
8,14.000016685846778
9,14.00003623128302
96,43.217678450795677
135,43.20958214077543
174,43.24059618981192
243,1364873.0272321862
292,1364873.0272321862
419,0.0
470,38554352.41748434
520,10178.549920980633
245,41348330.202603738
536,0.0
2,4, 1, 4, 0,11, 0.00,60.00,Wednesday
7,14.000029369089193
8,13.999840076133625
9,13.999929343711897
96,43.40025452133255
135,43.391703751898159
174,43.42447895090956
243,1363026.020677056
292,1363026.020677056
419,0.0
470,38351536.30994841
520,10115.50327544641
245,41141525.90155696
536,0.0
2,4, 1, 4, 0,12, 0.00,60.00,Wednesday
7,13.999858385537153
8,14.000029665328596
9,13.999824563435967
96,43.54337075177253
135,43.532428132734867
174,43.567467866009227
243,1361291.0931260586
292,1361291.0931260586
419,0.0
470,38164444.02368029
520,10056.571236738748
245,40950691.47550217
536,0.0
2,4, 1, 4, 0,13, 0.00,60.00,Wednesday
7,14.000026027861415
8,13.999832955468154
9,14.000091820904382
96,43.667418876456078
135,43.65612932766888
174,43.69043803532256
243,1359447.0699003775
292,1359447.0699003775
419,0.0
470,37990567.257512088
520,10003.252977252294
245,40772874.92679891
536,0.0
2,4, 1, 4, 0,14, 0.00,60.00,Wednesday
7,13.99983532321839
8,14.00003811743419
9,13.999883385348632
96,43.78844649326027
135,43.77498514371844
174,43.811440390202168
243,1357997.3938063798
292,1357997.3938063798
419,0.0
470,37829972.543987039
520,9953.80394886139
245,40609148.04787815
536,0.0
2,4, 1, 4, 0,15, 0.00,60.00,Wednesday
7,14.000034869691824
8,13.999882467039868
9,13.999805778501563
96,43.94668420921577
135,43.93372303859637
174,43.97332994366173
243,1356484.8470711734
292,1356484.8470711734
419,0.0
470,37675477.82269691
520,9907.647258599392
245,40451405.57071976
536,0.0
2,4, 1, 4, 0,16, 0.00,60.00,Wednesday
7,13.999839805349442
8,13.999961288118739
9,14.000057599782102
96,44.17247624904849
135,44.15879071249742
174,44.20243758826883
243,1354880.605305459
292,1354880.605305459
419,0.0
470,37522337.98242372
520,9860.993138324773
245,40294835.54869864
536,0.0
2,4, 1, 4, 0,17, 0.00,60.00,Wednesday
7,14.000041998898612
8,13.999969751890527
9,13.999923548459004
96,44.37113103301885
135,44.35649489626742
174,44.40255575489987
243,1353339.7096767298
292,1353339.7096767298
419,0.0
470,37367389.30158516
520,9814.763697221159
245,40136581.62759656
536,0.0
2,4, 1, 4, 0,18, 0.00,60.00,Wednesday
7,13.999866312875027
8,13.999851633255135
9,13.999821333957856
96,44.402319384169967
135,44.38422611705121
174,44.424858371478148
243,1352145.3196368144
292,1352145.3196368144
419,0.0
470,37216141.18454771
520,9768.298684943546