Program Version,EnergyPlus, Version 9.4.0-998c4b761e, YMD=2022.11.01 16:54
1,5,Environment Title[],Latitude[deg],Longitude[deg],Time Zone[],Elevation[m]
2,8,Day of Simulation[],Month[],Day of Month[],DST Indicator[1=yes 0=no],Hour[],StartMinute[],EndMinute[],DayType
3,5,Cumulative Day of Simulation[],Month[],Day of Month[],DST Indicator[1=yes 0=no],DayType  ! When Daily Report Variables Requested
4,2,Cumulative Days of Simulation[],Month[]  ! When Monthly Report Variables Requested
5,1,Cumulative Days of Simulation[] ! When Run Period Report Variables Requested
6,1,Calendar Year of Simulation[] ! When Annual Report Variables Requested
7,1,BLOCK1:ZONE1,Zone Mean Air Temperature [C] !Hourly
8,1,BLOCK2:ZONE1,Zone Mean Air Temperature [C] !Hourly
9,1,BLOCK3:ZONE1,Zone Mean Air Temperature [C] !Hourly
120,1,BLOCK1:ZONE1,Zone Air Temperature [C] !Hourly
121,1,BLOCK1:ZONE1,Zone Air Relative Humidity [%] !Hourly
160,1,BLOCK2:ZONE1,Zone Air Temperature [C] !Hourly
161,1,BLOCK2:ZONE1,Zone Air Relative Humidity [%] !Hourly
200,1,BLOCK3:ZONE1,Zone Air Temperature [C] !Hourly
201,1,BLOCK3:ZONE1,Zone Air Relative Humidity [%] !Hourly
494,1,AIR LOOP AHU UNITARY COOLING COIL DX COOLING COIL,Cooling Coil Total Cooling Rate [W] !Hourly
558,1,BOILER,Boiler Electricity Rate [W] !Hourly
272,1,Electricity:Facility [J] !Hourly
637,1,Carbon Equivalent:Facility [kg] !Hourly
273,7,Electricity:Facility [J] !Daily [Value,Min,Hour,Minute,Max,Hour,Minute]
638,7,Carbon Equivalent:Facility [kg] !Daily [Value,Min,Hour,Minute,Max,Hour,Minute]
274,9,Electricity:Facility [J] !Monthly [Value,Min,Day,Hour,Minute,Max,Day,Hour,Minute]
639,9,Carbon Equivalent:Facility [kg] !Monthly [Value,Min,Day,Hour,Minute,Max,Day,Hour,Minute]
276,11,Electricity:Facility [J] !RunPeriod [Value,Min,Month,Day,Hour,Minute,Max,Month,Day,Hour,Minute]
641,11,Carbon Equivalent:Facility [kg] !RunPeriod [Value,Min,Month,Day,Hour,Minute,Max,Month,Day,Hour,Minute]
End of Data Dictionary
1,EXAMPLE (O1-O1:31-12),  52.10,   5.18,   0.00,   1.90
2,1, 1, 1, 0, 1, 0.00,60.00,Sunday
7,12.999890081701237
8,13.00001442457346
9,12.999951009638713
120,12.999890081701237
121,49.561278133838907
160,13.00001442457346
161,49.5564537020693
200,12.999951009638713
201,49.55083743955729
494,0.0
558,5051.56339046129
272,20915308.143317135
637,0.0
2,1, 1, 1, 0, 2, 0.00,60.00,Sunday
7,12.999995826463119
8,13.000059788668113
9,12.999852434783968
120,12.999995826463119
121,49.51216760786648
160,13.000059788668113
161,49.51009743885703
200,12.999852434783968
201,49.5107163376613
494,0.0
558,5028.652133832774
272,20832698.071958018
637,0.0
2,1, 1, 1, 0, 3, 0.00,60.00,Sunday
7,13.000062878218716
8,13.00007803982862
9,12.999914183640622
120,13.000062878218716
121,49.20542193318571
160,13.00007803982862
161,49.206071521163519
200,12.999914183640622
201,49.211313572570087
494,0.0
558,4980.098516750323
272,20657631.37999495
637,0.0
2,1, 1, 1, 0, 4, 0.00,60.00,Sunday
7,12.999988513588847
8,13.000064903731153
9,12.999988255451193
120,12.999988513588847
121,48.937930764398888
160,13.000064903731153
161,48.9402484892752
200,12.999988255451193
201,48.94788449961846
494,0.0
558,4977.671381229922
272,20648880.168865287
637,0.0
2,1, 1, 1, 0, 5, 0.00,60.00,Sunday
7,12.999987130384137
8,13.000068533139256
9,12.999864608271201
120,12.999987130384137
121,48.72327589909506
160,13.000068533139256
161,48.726762636749167
200,12.999864608271201
201,48.73586947049051
494,0.0
558,5003.349412006251
272,20741465.353208875
637,0.0
2,1, 1, 1, 0, 6, 0.00,60.00,Sunday
7,12.999975830142594
8,13.000051174905126
9,12.999771718453412
120,12.999975830142594
121,48.53545605392748
160,13.000051174905126
161,48.53964619563677
200,12.999771718453412
201,48.54911184879086
494,0.0
558,5046.724144854744
272,20897858.307043245
637,0.0
2,1, 1, 1, 0, 7, 0.00,60.00,Sunday
7,12.999844439519804
8,12.999829491807418
9,13.000191911749616
120,12.999844439519804
121,48.3763333716428
160,12.999829491807418
161,48.38110097825981
200,13.000191911749616
201,48.388058654257267
494,0.0
558,5103.553358694361
272,21102763.65477515
637,0.0
2,1, 1, 1, 0, 8, 0.00,60.00,Sunday
7,13.00007765302099
8,13.00005488293543
9,13.00002484671838
120,13.00007765302099
121,48.25507242805488
160,13.00005488293543
161,48.25989337395371
200,13.00002484671838
201,48.26734911009141
494,0.0
558,5167.500317919284
272,21333333.415992414
637,0.0
2,1, 1, 1, 0, 9, 0.00,60.00,Sunday
7,12.999997929317372
8,12.999980020514967
9,13.000006575431288
120,12.999997929317372
121,48.165240997294748
160,12.999980020514967
161,48.16984431995232
200,13.000006575431288
201,48.176153378196747
494,0.0
558,5230.804304335142
272,21561585.237511513
637,0.0
2,1, 1, 1, 0,10, 0.00,60.00,Sunday
7,13.000036180872672
8,12.999911520496577
9,12.999829911220792
120,13.000036180872672
121,48.11206033397418
160,12.999911520496577
161,48.11661984071511
200,12.999829911220792
201,48.12216819804874
494,0.0
558,5292.586248461555
272,21784349.89482971
637,0.0
2,1, 1, 1, 0,11, 0.00,60.00,Sunday
7,13.000121161620103
8,12.999982515855935
9,13.000122625433184
120,13.000121161620103
121,48.05743880367049
160,12.999982515855935
161,48.06153318372105
200,13.000122625433184
201,48.065230447378947
494,0.0
558,5347.12850485276
272,21981011.10395467
637,0.0
2,1, 1, 1, 0,12, 0.00,60.00,Sunday
7,13.000002711402786
8,13.000018487696368
9,13.00033674839829
120,13.000002711402786
121,48.01122836459746
160,13.000018487696368
161,48.01420268233985
200,13.00033674839829
201,48.01609973500112
494,0.0
558,5386.195072443147
272,22121872.363319216
637,0.0
2,1, 1, 1, 0,13, 0.00,60.00,Sunday
7,12.999828129491384
8,12.999879334967153
9,13.000384967119212
120,12.999828129491384
121,48.02361513857139
160,12.999879334967153
161,48.02568277735059
200,13.000384967119212
201,48.02555628429071
494,0.0
558,5407.905941627348
272,22200154.788803318
637,0.0
2,1, 1, 1, 0,14, 0.00,60.00,Sunday
7,12.999963974507315
8,13.000087129944305
9,13.000226543046125
120,12.999963974507315
121,48.07040037720234
160,13.000087129944305
161,48.0713797008679
200,13.000226543046125
201,48.07098856684797
494,0.0
558,5421.334822366604
272,22248575.29937499
637,0.0
2,1, 1, 1, 0,15, 0.00,60.00,Sunday
7,13.000103126521785
8,12.99986266324352
9,13.000176354870442
120,13.000103126521785
121,48.13508477187215
160,12.99986266324352
161,48.136372071859117
200,13.000176354870442
201,48.13419554025268
494,0.0
558,5417.874695956009
272,22236099.60824816
637,0.0
2,1, 1, 1, 0,16, 0.00,60.00,Sunday
7,13.000030859496107
8,12.999938504061128
9,12.999964839135475
120,13.000030859496107
121,48.20861352695217
160,12.999938504061128
161,48.20863525507116
200,12.999964839135475
201,48.206284659737928
494,0.0
558,5404.893624518257
272,22189294.569717498
637,0.0
2,1, 1, 1, 0,17, 0.00,60.00,Sunday
7,12.999864593529403
8,12.999953714381287
9,12.99995219261205
120,12.999864593529403
121,48.29508519954314
160,12.999953714381287
161,48.29381902254062
200,12.99995219261205
201,48.29068840277546
494,0.0
558,5379.864758445499
272,22099049.063235813
637,0.0
2,1, 1, 1, 0,18, 0.00,60.00,Sunday
7,13.000071343914043
8,13.000144674801354
9,12.999952817200109
120,13.000071343914043
121,48.38411604465895
160,13.000144674801354
161,48.38220935363256
200,12.999952817200109
201,48.378855702952218
494,0.0
558,5351.754008999936
272,21997691.257432369
637,0.0
2,1, 1, 1, 0,19, 0.00,60.00,Sunday
7,12.999823072652987
8,13.000022713532653
9,13.000003893100408
120,12.999823072652987
121,48.489655802175558
160,13.000022713532653
161,48.48664132224919
200,13.000003893100408
201,48.48186879608908
494,0.0
558,5316.951223514772
272,21872204.082607844
637,0.0
2,1, 1, 1, 0,20, 0.00,60.00,Sunday
7,13.000000619038547
8,12.999822613753393
9,13.000039324002709
120,13.000000619038547
121,48.61273689674764
160,12.999822613753393
161,48.61024710704694
200,13.000039324002709
201,48.60392308000934
494,0.0
558,5283.507423430909
272,21751617.01729664
637,0.0
2,1, 1, 1, 0,21, 0.00,60.00,Sunday
7,12.999955147184274
8,12.99981737994833
9,12.999618083433433
120,12.999955147184274
121,48.742697280785169
160,12.99981737994833
161,48.73945217244417
200,12.999618083433433
201,48.73373832897423
494,0.0
558,5239.481567703012
272,21592874.702709486
637,0.0
2,1, 1, 1, 0,22, 0.00,60.00,Sunday
7,13.000042235443722
8,13.000037360036622
9,13.000302167237726
120,13.000042235443722
121,48.86457788895232
160,13.000037360036622
161,48.86036769415975
200,13.000302167237726
201,48.85262891489549
494,0.0
558,5192.41584290286
272,21423171.94125932
637,0.0
2,1, 1, 1, 0,23, 0.00,60.00,Sunday
7,12.999922996116615
8,13.000074202108794
9,13.000010035517759
120,12.999922996116615
121,48.98683346215463
160,13.000074202108794
161,48.98174081838439
200,13.000010035517759
201,48.97481104520711
494,0.0
558,5143.001680958902
272,21245001.64520607
637,0.0
2,1, 1, 1, 0,24, 0.00,60.00,Sunday
7,13.000007859395007
8,12.999944247297377
9,13.000062290431993
120,13.000007859395007
121,49.10162357000891
160,12.999944247297377
161,49.09689729723784
200,13.000062290431993
201,49.08918223592976
494,0.0
558,5088.6899194263819
272,21049172.495637236
637,0.0
3,1, 1, 1, 0,Sunday
273,516483663.56629887,3432330.656386204, 4,40,3713752.9288806549,14,50
638,0.0,0.0, 1,10,0.0, 1,10
2,2, 1, 2, 0, 1, 0.00,60.00,Monday
7,13.000110478485946
8,13.000151395078526
9,13.000204832617195
120,13.000110478485946
121,49.20483121211268
160,13.000151395078526
161,49.19952893452458
200,13.000204832617195
201,49.19193069311967
494,0.0
558,5030.095490869404
272,20837901.918317714
637,0.0
2,2, 1, 2, 0, 2, 0.00,60.00,Monday
7,13.000013199362657
8,13.000030732465059
9,12.99981059393234
120,13.000013199362657
121,49.31382439024494
160,13.000030732465059
161,49.3084044624056
200,12.99981059393234
201,49.301625605797038
494,0.0
558,4958.038429824903
272,20578090.41002122
637,0.0
2,2, 1, 2, 0, 3, 0.00,60.00,Monday
7,12.999903900117781
8,12.999899791252466
9,12.999935946324598
120,12.999903900117781
121,49.419021544751227
160,12.999899791252466
161,49.41354336857063
200,12.999935946324598
201,49.40595430968481
494,0.0
558,4873.391744294561
272,20272885.782732388
637,0.0
2,2, 1, 2, 0, 4, 0.00,60.00,Monday
7,12.999979238178823
8,13.000074820929056
9,13.000163166046788
120,12.999979238178823
121,49.52135772651533
160,13.000074820929056
161,49.515489919506737
200,13.000163166046788
201,49.5078160693244
494,0.0
558,4771.969474997676
272,19907194.749373564
637,0.0
2,2, 1, 2, 0, 5, 0.00,60.00,Monday
7,13.000012019749008
8,12.999954609876128
9,13.000096416290118
120,13.000012019749008
121,49.6312565757324
160,12.999954609876128
161,49.62575632240095
200,13.000096416290118
201,49.61779467469736
494,0.0
558,4669.160550597322
272,19536505.37937149
637,0.0
2,2, 1, 2, 0, 6, 0.00,60.00,Monday
7,13.00009493455868
8,13.00009731321443
9,12.999831976435275
120,13.00009493455868
121,49.73491667501469
160,13.00009731321443
161,49.729127301935708
200,12.999831976435275
201,49.722436344995468
494,0.0
558,4569.36508862629
272,19176681.881980085
637,0.0
2,2, 1, 2, 0, 7, 0.00,60.00,Monday
7,13.000089813425254
8,13.000184272268435
9,12.999828813832276
120,13.000089813425254
121,49.85406652258688
160,13.000184272268435
161,49.847801566876437
200,12.999828813832276
201,49.84114834726427
494,0.0
558,4474.258022413761
272,18833764.20857008
637,0.0
2,2, 1, 2, 0, 8, 0.00,60.00,Monday
7,13.000033797759875
8,12.999997321825374
9,12.999950908275603
120,13.000033797759875
121,50.00206400597488
160,12.999997321825374
161,49.995979921390567
200,12.999950908275603
201,49.98792796078582
494,0.0
558,4385.553356155253
272,18513931.041997214
637,0.0
2,2, 1, 2, 0, 9, 0.00,60.00,Monday
7,13.00013849815245
8,12.999724363351178
9,12.99997581043499
120,13.00013849815245
121,50.15825224951566
160,12.999724363351178
161,50.153202778886249
200,12.99997581043499
201,50.143902730011948
494,0.0
558,4283.7073883969819
272,18146715.84230794
637,0.0
2,2, 1, 2, 0,10, 0.00,60.00,Monday
7,13.000152486013813
8,12.99992088110339
9,13.000024329496128
120,13.000152486013813
121,50.331330229454547
160,12.99992088110339
161,50.32529430322293
200,13.000024329496128
201,50.31580750393189
494,0.0
558,4171.710452926347
272,17742901.40230182
637,0.0
2,2, 1, 2, 0,11, 0.00,60.00,Monday
7,13.000030360082278
8,12.99999376355545
9,12.999775213170614
120,13.000030360082278
121,50.51229246681864
160,12.99999376355545
161,50.5051120059579
200,12.999775213170614
201,50.495825513155647
494,0.0
558,4053.3961940959477
272,17316309.713413199
637,0.0
2,2, 1, 2, 0,12, 0.00,60.00,Monday
7,13.000041425695102
8,12.999881866149183
9,13.000256219804806
120,13.000041425695102
121,50.70890452712851
160,12.999881866149183
161,50.70144396461462
200,13.000256219804806
201,50.68902294261117
494,0.0
558,3919.3692653857867
272,16833066.544301109
637,0.0
2,2, 1, 2, 0,13, 0.00,60.00,Monday
7,13.000014631886414
8,12.999846760304827
9,13.000089729241447
120,13.000014631886414
121,50.897305879618709
160,12.999846760304827
161,50.889418695626918
200,13.000089729241447
201,50.87689045201938
494,0.0
558,3746.0869168570904
272,16208286.815313908
637,0.0
2,2, 1, 2, 0,14, 0.00,60.00,Monday
7,12.99992391937117
8,12.999940530804727
9,13.010779937773636
120,12.99992391937117
121,51.069331891862507
160,12.999940530804727
161,51.060615231086028
200,13.010779937773636
201,51.01267798050922
494,0.0
558,3565.301843114505
272,15556460.897048142
637,0.0
2,2, 1, 2, 0,15, 0.00,60.00,Monday
7,12.999919131408161
8,12.999921991745984
9,13.058458322297618
120,12.999919131408161
121,51.22876365740134
160,12.999921991745984
161,51.22019669102112
200,13.058458322297618
201,51.013347896015059
494,0.0
558,3417.0775181244978
272,15022025.195978156
637,0.0
2,2, 1, 2, 0,16, 0.00,60.00,Monday
7,13.000098638509805
8,13.000105848654158
9,13.113141055175355
120,13.000098638509805
121,51.384582180818977
160,13.000105848654158
161,51.3762115317273
200,13.113141055175355
201,50.987456739551657
494,0.0
558,3271.7490427049708
272,14498029.303280848
637,0.0
2,2, 1, 2, 0,17, 0.00,60.00,Monday
7,13.000072810894097
8,13.000058210927256
9,13.164491735666575
120,13.000072810894097
121,51.535093084875068
160,13.000058210927256
161,51.52700066171547
200,13.164491735666575
201,50.966172999000949
494,0.0
558,3132.4361131018238
272,13995725.736433179
637,0.0
2,2, 1, 2, 0,18, 0.00,60.00,Monday
7,13.000050326880503
8,12.99997001170109
9,13.20668636751793
120,13.000050326880503
121,51.706356361985509
160,12.99997001170109
161,51.69849526848106
200,13.20668636751793
201,50.99480442505899
494,0.0
558,3010.662470872818
272,13556663.853171707
637,0.0
2,2, 1, 2, 0,19, 0.00,60.00,Monday
7,12.999999148795814
8,13.00003691327654
9,13.239004688076298
120,12.999999148795814
121,51.90179300921671
160,13.00003691327654
161,51.89333393860577
200,13.239004688076298
201,51.078936269880738
494,0.0
558,2910.451308136373
272,13195349.342005376
637,0.0
2,2, 1, 2, 0,20, 0.00,60.00,Monday
7,13.000046681261943
8,13.000034899684124
9,13.264086978530925
120,13.000046681261943
121,52.116568394935807
160,13.000034899684124
161,52.10792548063159
200,13.264086978530925
201,51.205630130722578
494,0.0
558,2824.423700084891
272,12885175.151368024
637,0.0
2,2, 1, 2, 0,21, 0.00,60.00,Monday
7,12.999992592975877
8,13.000174000855447
9,13.286081732360158
120,12.999992592975877
121,52.34563332855242
160,13.000174000855447
161,52.33598845472705
200,13.286081732360158
201,51.355950761823148
494,0.0
558,2744.5858815256049
272,12597320.344609846
637,0.0
2,2, 1, 2, 0,22, 0.00,60.00,Monday
7,13.001340977986608
8,13.006947941895696
9,13.30651293663749
120,13.001340977986608
121,52.56992307640713
160,13.006947941895696
161,52.541389582319229
200,13.30651293663749
201,51.51146940246091
494,0.0
558,2694.8615934214165
272,12418042.323592984
637,0.0
2,2, 1, 2, 0,23, 0.00,60.00,Monday
7,13.01185639994849
8,13.025299460636428
9,13.326370885945585
120,13.01185639994849
121,52.74502212487892
160,13.025299460636428
161,52.68943996357543
200,13.326370885945585
201,51.65198847970563
494,0.0
558,2684.2874917642168
272,12379910.92775272
637,0.0
2,2, 1, 2, 0,24, 0.00,60.00,Monday
7,13.024553602213795
8,13.043652844067637
9,13.345261351683233
120,13.024553602213795
121,52.89278871899415
160,13.043652844067637
161,52.8177420958824
200,13.345261351683233
201,51.77666822852482
494,0.0
558,2677.2945587614347
272,12354689.460396829
637,0.0
3,2, 1, 2, 0,Monday
273,392363628.22563949,2057534.1483230496,24,60,3494450.3331586935, 1,10
638,0.0,0.0, 1,10,0.0, 1,10
2,3, 1, 3, 0, 1, 0.00,60.00,Tuesday
7,13.036052983447384
8,13.060271370743742
9,13.362535265670955
120,13.036052983447384
121,53.02407289772855
160,13.060271370743742
161,52.93149509530328
200,13.362535265670955
201,51.88684586326113
494,0.0
558,2671.2559618689667
272,12332909.801798772
637,0.0
2,3, 1, 3, 0, 2, 0.00,60.00,Tuesday
7,13.046628288669174
8,13.075593332609051
9,13.378219008520859
120,13.046628288669174
121,53.16213966173432
160,13.075593332609051
161,53.053170791187877
200,13.378219008520859
201,52.005523433302609
494,0.0
558,2665.5058915577608
272,12312170.941689494
637,0.0
2,3, 1, 3, 0, 3, 0.00,60.00,Tuesday
7,13.055072464672082
8,13.088607218322628
9,13.390912798487527
120,13.055072464672082
121,53.31651052510065
160,13.088607218322628
161,53.19159435235978
200,13.390912798487527
201,52.14274833207253
494,0.0
558,2660.709691176017
272,12294872.244463036
637,0.0
2,3, 1, 3, 0, 4, 0.00,60.00,Tuesday
7,13.06242615730404
8,13.100374211495748
9,13.401331548011271
120,13.06242615730404
121,53.48341967997967
160,13.100374211495748
161,53.342872344899017
200,13.401331548011271
201,52.29582719070556
494,0.0
558,2656.705711356309
272,12280430.937400708
637,0.0
2,3, 1, 3, 0, 5, 0.00,60.00,Tuesday
7,13.070010736098814
8,13.111957727792684
9,13.410176008610165
120,13.070010736098814
121,53.652527675109109
160,13.111957727792684
161,53.4977144135668
200,13.410176008610165
201,52.45723403124979
494,0.0
558,2652.8356688264195
272,12266472.777042099
637,0.0
2,3, 1, 3, 0, 6, 0.00,60.00,Tuesday
7,13.07607754862119
8,13.121704062050024
9,13.41613603838731
120,13.07607754862119
121,53.851176928559549
160,13.121704062050024
161,53.68300795946453
200,13.41613603838731
201,52.65208107123937
494,0.0
558,2649.7308524040779
272,12255274.518477383
637,0.0
2,3, 1, 3, 0, 7, 0.00,60.00,Tuesday
7,13.080486842788366
8,13.129426122299009
9,13.419521736753078
120,13.080486842788366
121,54.07383448061691
160,13.129426122299009
161,53.89337262022901
200,13.419521736753078
201,52.87339866110248
494,0.0
558,2647.347025255495
272,12246676.582478786
637,0.0
2,3, 1, 3, 0, 8, 0.00,60.00,Tuesday
7,13.083290030330515
8,13.135125045678729
9,13.42082625044189
120,13.083290030330515
121,54.28497378291522
160,13.135125045678729
161,54.093768025492149
200,13.42082625044189
201,53.08554495353378
494,0.0
558,2645.9110033061895
272,12241497.061475188
637,0.0
2,3, 1, 3, 0, 9, 0.00,60.00,Tuesday
7,13.085405193012527
8,13.139809310939223
9,13.420203709035157
120,13.085405193012527
121,54.460502984474839
160,13.139809310939223
161,54.2600236202122
200,13.420203709035157
201,53.26797964033788
494,0.0
558,2644.8967443152316
272,12237838.863935117
637,0.0
2,3, 1, 3, 0,10, 0.00,60.00,Tuesday
7,13.087524998383764
8,13.143993190850408
9,13.417887457905872
120,13.087524998383764
121,54.59443446885956
160,13.143993190850408
161,54.38685881976145
200,13.417887457905872
201,53.41646028070314
494,0.0
558,2644.1471385278007
272,12235135.214643956
637,0.0
2,3, 1, 3, 0,11, 0.00,60.00,Tuesday
7,13.090630805660103
8,13.148501823810742
9,13.415975131320615
120,13.090630805660103
121,54.67943594841597
160,13.148501823810742
161,54.4674658066167
200,13.415975131320615
201,53.51961015394414
494,0.0
558,2643.2243622513294
272,12231807.099374619
637,0.0
2,3, 1, 3, 0,12, 0.00,60.00,Tuesday
7,13.095985578033904
8,13.154353653570638
9,13.41838394304039
120,13.095985578033904
121,54.69748083056978
160,13.154353653570638
161,54.48476588481949
200,13.41838394304039
201,53.55041483260454
494,0.0
558,2641.4151560603697
272,12225282.057044864
637,0.0
2,3, 1, 3, 0,13, 0.00,60.00,Tuesday
7,13.1063768606154
8,13.16396374211586
9,13.431179491224939
120,13.1063768606154
121,54.681514067703179
160,13.16396374211586
161,54.4725666289762
200,13.431179491224939
201,53.52858232384873
494,0.0
558,2637.3160215168188
272,12210498.427432055
637,0.0
2,3, 1, 3, 0,14, 0.00,60.00,Tuesday
7,13.123457759722621
8,13.179026956476534
9,13.454205291677889
120,13.123457759722621
121,54.62953083281488
160,13.179026956476534
161,54.42879946723918
200,13.454205291677889
201,53.458905271534458
494,0.0
558,2630.1660965468975
272,12184711.504161153
637,0.0
2,3, 1, 3, 0,15, 0.00,60.00,Tuesday
7,13.14378567772667
8,13.19697256320587
9,13.483625770098634
120,13.14378567772667
121,54.55164753559142
160,13.19697256320587
161,54.36047575070321
200,13.483625770098634
201,53.35293211674847
494,0.0
558,2621.6427840827257
272,12153970.961512486
637,0.0
2,3, 1, 3, 0,16, 0.00,60.00,Tuesday
7,13.165048891977909
8,13.216125662222524
9,13.515302392938303
120,13.165048891977909
121,54.44293110913055
160,13.216125662222524
161,54.260455060911677
200,13.515302392938303
201,53.212435703702109
494,0.0
558,2612.463207489453
272,12120863.328300063
637,0.0
2,3, 1, 3, 0,17, 0.00,60.00,Tuesday
7,13.185709129732033
8,13.235459996063805
9,13.542515977799218
120,13.185709129732033
121,54.32955396729392
160,13.235459996063805
161,54.15280458951123
200,13.542515977799218
201,53.080349893498929
494,0.0
558,2603.7943512865169
272,12089597.4803529
637,0.0
2,3, 1, 3, 0,18, 0.00,60.00,Tuesday
7,13.203226708510064
8,13.252753639856662
9,13.557656400585297
120,13.203226708510064
121,54.196160359229647
160,13.252753639856662
161,54.02127293837025
200,13.557656400585297
201,52.9596057500259
494,0.0
558,2597.1457670965717
272,12065617.711476926
637,0.0
2,3, 1, 3, 0,19, 0.00,60.00,Tuesday
7,13.21446147692585
8,13.264999507883147
9,13.556935614270524
120,13.21446147692585
121,54.062041263017118
160,13.264999507883147
161,53.88473930088008
200,13.556935614270524
201,52.871316221665548
494,0.0
558,2593.8990169491187
272,12053907.002712574
637,0.0
2,3, 1, 3, 0,20, 0.00,60.00,Tuesday
7,13.219995163917586
8,13.272165731434408
9,13.543252397293943
120,13.219995163917586
121,53.935788189790439
160,13.272165731434408
161,53.7537812168251
200,13.543252397293943
201,52.81519295208094
494,0.0
558,2593.3558288676474
272,12051947.27583334
637,0.0
2,3, 1, 3, 0,21, 0.00,60.00,Tuesday
7,13.22089086903369
8,13.274550805449316
9,13.520653719661974
120,13.22089086903369
121,53.822046315172148
160,13.274550805449316
161,53.63566149718407
200,13.520653719661974
201,52.78536115773674
494,0.0
558,2594.7760762497498
272,12057069.043893822
637,0.0
2,3, 1, 3, 0,22, 0.00,60.00,Tuesday
7,13.218492614746994
8,13.27292604412163
9,13.49321241953755
120,13.218492614746994
121,53.7281274387015
160,13.27292604412163
161,53.53961546641829
200,13.49321241953755
201,52.77955818626348
494,0.0
558,2598.49949637713
272,12070497.633632223
637,0.0
2,3, 1, 3, 0,23, 0.00,60.00,Tuesday
7,13.21204034705742
8,13.266382225406744
9,13.462943164123383
120,13.21204034705742
121,53.64517708432689
160,13.266382225406744
161,53.45729647947434
200,13.462943164123383
201,52.779564620154427
494,0.0
558,2603.7236920731145
272,12089339.196691422
637,0.0
2,3, 1, 3, 0,24, 0.00,60.00,Tuesday
7,13.203154300115387
8,13.256587811232685
9,13.43345285899902
120,13.203154300115387
121,53.59492325786719
160,13.256587811232685
161,53.41005332160188
200,13.43345285899902
201,52.799660718460497
494,0.0
558,2609.8580324546458
272,12111463.619790473
637,0.0
3,3, 1, 3, 0,Tuesday
273,292419851.28561338,2008510.0685045783,19,60,2056912.2779856257, 1,10
638,0.0,0.0, 1,10,0.0, 1,10
2,4, 1, 4, 0, 1, 0.00,60.00,Wednesday
7,13.195103995199054
8,13.246584794338128
9,13.407964302926152
120,13.195103995199054
121,53.58509048268471
160,13.246584794338128
161,53.40649208402675
200,13.407964302926152
201,52.84816292464267
494,0.0
558,2615.468988244917
272,12131700.56594617
637,0.0
2,4, 1, 4, 0, 2, 0.00,60.00,Wednesday
7,13.186544734810516
8,13.235325440442518
9,13.38555054105096
120,13.186544734810516
121,53.607777199333728
160,13.235325440442518
161,53.43792651109914
200,13.38555054105096
201,52.9165905459528
494,0.0
558,2621.0239179815
272,12151735.404388296
637,0.0
2,4, 1, 4, 0, 3, 0.00,60.00,Wednesday
7,13.17645387757643
8,13.222200955932389
9,13.365778379962775
120,13.17645387757643
121,53.63705620035669
160,13.222200955932389
161,53.47720234305566
200,13.365778379962775
201,52.97763166674442
494,0.0
558,2626.750460193695
272,12172389.153216374
637,0.0
2,4, 1, 4, 0, 4, 0.00,60.00,Wednesday
7,13.165872600045875
8,13.208547021334555
9,13.349741339815103
120,13.165872600045875
121,53.67307246750372
160,13.208547021334555
161,53.523416843403989
200,13.349741339815103
201,53.03104384264887
494,0.0
558,2632.3808012059287
272,12192696.089493579
637,0.0
2,4, 1, 4, 0, 5, 0.00,60.00,Wednesday
7,13.157029729452937
8,13.196494213408299
9,13.338219370119982
120,13.157029729452937
121,53.73060981424327
160,13.196494213408299
161,53.591479354108098
200,13.338219370119982
201,53.09578681551651
494,0.0
558,2636.897402532712
272,12208986.27074
637,0.0
2,4, 1, 4, 0, 6, 0.00,60.00,Wednesday
7,13.14839493117242
8,13.184727582887467
9,13.328567318183915
120,13.14839493117242
121,53.829268398416989
160,13.184727582887467
161,53.700089644639628
200,13.328567318183915
201,53.19476334177446
494,0.0
558,2641.0682157265657
272,12224029.159891516
637,0.0
2,4, 1, 4, 0, 7, 0.00,60.00,Wednesday
7,13.140042051167514
8,13.173481687281539
9,13.320020063923016
120,13.140042051167514
121,53.95360676930387
160,13.173481687281539
161,53.833486195889829
200,13.320020063923016
201,53.31625747202841
494,0.0
558,2645.059987181032
272,12238426.36129171
637,0.0
2,4, 1, 4, 0, 8, 0.00,60.00,Wednesday
7,13.132975437439236
8,13.163650377924475
9,13.312750077007678
120,13.132975437439236
121,54.08943159267165
160,13.163650377924475
161,53.97796828021472
200,13.312750077007678
201,53.44930611592286
494,0.0
558,2648.4582973720096
272,12250683.09312527
637,0.0
2,4, 1, 4, 0, 9, 0.00,60.00,Wednesday
7,13.126976655263
8,13.155018997885568
9,13.306550892339175
120,13.126976655263
121,54.23130758292746
160,13.155018997885568
161,54.12813120898733
200,13.306550892339175
201,53.58855453079982
494,0.0
558,2651.610022202575
272,12262050.490550539
637,0.0
2,4, 1, 4, 0,10, 0.00,60.00,Wednesday
7,13.122683699094969
8,13.148192770346478
9,13.303510635237333
120,13.122683699094969
121,54.38423584853203
160,13.148192770346478
161,54.28912541323698
200,13.303510635237333
201,53.733956258430968
494,0.0
558,2653.9567254237788
272,12270514.564326864
637,0.0
2,4, 1, 4, 0,11, 0.00,60.00,Wednesday
7,13.120387279844449
8,13.143307440126529
9,13.30518296094742
120,13.120387279844449
121,54.51877656297748
160,13.143307440126529
161,54.43211521644434
200,13.30518296094742
201,53.85193073162268
494,0.0
558,2654.9943046192117
272,12274257.124496736
637,0.0
2,4, 1, 4, 0,12, 0.00,60.00,Wednesday
7,13.119966891708629
8,13.140304156078074
9,13.311144781697033
120,13.119966891708629
121,54.62894379130963
160,13.140304156078074
161,54.55091010318072
200,13.311144781697033
201,53.937600456705897
494,0.0
558,2655.088529880026
272,12274597.173334547
637,0.0
2,4, 1, 4, 0,13, 0.00,60.00,Wednesday
7,13.120970153767738
8,13.13897046643413
9,13.32059900794218
120,13.120970153767738
121,54.74038839800073
160,13.13897046643413
161,54.67025393585544
200,13.32059900794218
201,54.01744497837623
494,0.0
558,2654.8602384993189
272,12273773.953046054
637,0.0
2,4, 1, 4, 0,14, 0.00,60.00,Wednesday
7,13.123043371944514
8,13.139361722812325
9,13.331909907524319
120,13.123043371944514
121,54.854828591250988
160,13.139361722812325
161,54.79031820259891
200,13.331909907524319
201,54.097407393680217
494,0.0
558,2653.487377087456
272,12268822.767300327
637,0.0
2,4, 1, 4, 0,15, 0.00,60.00,Wednesday
7,13.125864974609029
8,13.141152107549282
9,13.344099530092981
120,13.125864974609029
121,54.97684564947119
160,13.141152107549282
161,54.909279637297128
200,13.344099530092981
201,54.16334435772501
494,225.88715879822733
558,2894.258857727112
272,13392680.761573736
637,0.0
2,4, 1, 4, 0,16, 0.00,60.00,Wednesday
7,13.130101488361698
8,13.144797591701242
9,13.356804618550486
120,13.130101488361698
121,54.99643295009247
160,13.144797591701242
161,54.88441793410383
200,13.356804618550486
201,54.008376382245078
494,512.9344816026508
558,3093.55796411076
272,14436112.988103286
637,0.0
2,4, 1, 4, 0,17, 0.00,60.00,Wednesday
7,13.134621965230055
8,13.14926216880032
9,13.368162582775219
120,13.134621965230055
121,54.99322236935185
160,13.14926216880032
161,54.83778347116155
200,13.368162582775219
201,53.86262105033425
494,416.32428409154587
558,2979.2111479217949
272,13914733.382990454
637,0.0
2,4, 1, 4, 0,18, 0.00,60.00,Wednesday
7,13.138362002102355
8,13.153530811056733
9,13.377377962583969
120,13.138362002102355
121,54.995560952535218
160,13.153530811056733
161,54.823319042797098
200,13.377377962583969
201,53.825384737092488
494,256.76235456389488
558,2855.4347044719904
272,13288037.11348578
637,0.0
2,4, 1, 4, 0,19, 0.00,60.00,Wednesday
7,13.141826045436126
8,13.157967168248398
9,13.385538079372749
120,13.141826045436126
121,54.9965577676245
160,13.157967168248398
161,54.81440542259472
200,13.385538079372749
201,53.810979686711458
494,237.6868375523837
558,2838.8534311724436
272,13206666.31868158
637,0.0
2,4, 1, 4, 0,20, 0.00,60.00,Wednesday
7,13.146213273724684
8,13.163443865425398
9,13.393480272885128
120,13.146213273724684
121,54.99624223692689
160,13.163443865425398
161,54.80769317065775
200,13.393480272885128
201,53.806086112555188
494,216.219503651184
558,2817.876606310822
272,13106721.32736812
637,0.0
2,4, 1, 4, 0,21, 0.00,60.00,Wednesday
7,13.151065789105005
8,13.169362136164239
9,13.400439651144766
120,13.151065789105005
121,54.995945744281367
160,13.169362136164239
161,54.8068770552041
200,13.400439651144766
201,53.81976539970546
494,158.2711546393236
558,2764.51481744741
272,12848670.821852144
637,0.0
2,4, 1, 4, 0,22, 0.00,60.00,Wednesday
7,13.15541316652127
8,13.174771044527624
9,13.405911661918147
120,13.15541316652127