Program Version,EnergyPlus, Version 8.9.0-40101eaafd, YMD=2022.11.22 17:43
1,5,Environment Title[],Latitude[deg],Longitude[deg],Time Zone[],Elevation[m]
2,8,Day of Simulation[],Month[],Day of Month[],DST Indicator[1=yes 0=no],Hour[],StartMinute[],EndMinute[],DayType
3,5,Cumulative Day of Simulation[],Month[],Day of Month[],DST Indicator[1=yes 0=no],DayType  ! When Daily Report Variables Requested
4,2,Cumulative Days of Simulation[],Month[]  ! When Monthly Report Variables Requested
5,1,Cumulative Days of Simulation[] ! When Run Period Report Variables Requested
6,1,Calendar Year of Simulation[] ! When Annual Report Variables Requested
7,1,BLOCK1:ZONE1,Zone Mean Air Temperature [C] !Hourly
8,1,BLOCK2:ZONE1,Zone Mean Air Temperature [C] !Hourly
9,1,BLOCK3:ZONE1,Zone Mean Air Temperature [C] !Hourly
96,1,BLOCK1:ZONE1,Zone Air Relative Humidity [%] !Hourly
135,1,BLOCK2:ZONE1,Zone Air Relative Humidity [%] !Hourly
174,1,BLOCK3:ZONE1,Zone Air Relative Humidity [%] !Hourly
243,9,AIR LOOP AHU EXTRACT FAN,Fan Electric Energy [J] !Monthly [Value,Min,Day,Hour,Minute,Max,Day,Hour,Minute]
292,9,AIR LOOP AHU SUPPLY FAN,Fan Electric Energy [J] !Monthly [Value,Min,Day,Hour,Minute,Max,Day,Hour,Minute]
406,9,AIR LOOP AHU STEAM HUMIDIFIER,Humidifier Electric Energy [J] !Monthly [Value,Min,Day,Hour,Minute,Max,Day,Hour,Minute]
419,9,AIR LOOP AHU UNITARY COOLING COIL DX COOLING COIL,Cooling Coil Total Cooling Energy [J] !Monthly [Value,Min,Day,Hour,Minute,Max,Day,Hour,Minute]
470,9,BOILER,Boiler Electric Energy [J] !Monthly [Value,Min,Day,Hour,Minute,Max,Day,Hour,Minute]
520,9,HW LOOP SUPPLY PUMP,Pump Electric Energy [J] !Monthly [Value,Min,Day,Hour,Minute,Max,Day,Hour,Minute]
245,1,Electricity:Facility [J] !Hourly
246,7,Electricity:Facility [J] !Daily [Value,Min,Hour,Minute,Max,Hour,Minute]
247,9,Electricity:Facility [J] !Monthly [Value,Min,Day,Hour,Minute,Max,Day,Hour,Minute]
249,11,Electricity:Facility [J] !RunPeriod [Value,Min,Month,Day,Hour,Minute,Max,Month,Day,Hour,Minute]
536,1,Carbon Equivalent:Facility [kg] !Hourly
537,7,Carbon Equivalent:Facility [kg] !Daily [Value,Min,Hour,Minute,Max,Hour,Minute]
538,9,Carbon Equivalent:Facility [kg] !Monthly [Value,Min,Day,Hour,Minute,Max,Day,Hour,Minute]
540,11,Carbon Equivalent:Facility [kg] !RunPeriod [Value,Min,Month,Day,Hour,Minute,Max,Month,Day,Hour,Minute]
End of Data Dictionary
1,EXAMPLE (O1-O1:31-12),  52.10,   5.18,   0.00,   1.90
2,1, 1, 1, 0, 1, 0.00,60.00,Sunday
7,13.999922433799246
8,13.999961975181652
9,13.999794094195656
96,40.270122144757568
135,40.26860033544353
174,40.25704551293184
245,69159821.22448616
536,0.0
2,1, 1, 1, 0, 2, 0.00,60.00,Sunday
7,13.999947186829962
8,13.999958639435384
9,14.000046095906792
96,40.01682034854676
135,40.01249267176862
174,39.99666987975104
245,69461977.07744746
536,0.0
2,1, 1, 1, 0, 3, 0.00,60.00,Sunday
7,13.999963719936272
8,13.99989929548985
9,13.999902229569154
96,39.99992788718383
135,39.9929433327734
174,39.98515469380869
245,68996610.85383187
536,0.0
2,1, 1, 1, 0, 4, 0.00,60.00,Sunday
7,13.999991010919786
8,13.999929977892342
9,13.999913439331174
96,39.99994681507225
135,39.992092760089949
174,39.9875547489494
245,68265122.66600934
536,0.0
2,1, 1, 1, 0, 5, 0.00,60.00,Sunday
7,13.999923951020403
8,14.000016514089534
9,13.9999397363813
96,40.00001453968342
135,39.99199233339555
174,39.98825043854126
245,67614217.49580884
536,0.0
2,1, 1, 1, 0, 6, 0.00,60.00,Sunday
7,13.999912028752258
8,13.999978556516658
9,13.99991171771177
96,39.99995412626288
135,39.99257380360703
174,39.98867721983682
245,66999847.43356398
536,0.0
2,1, 1, 1, 0, 7, 0.00,60.00,Sunday
7,13.999920894162182
8,13.999925129318422
9,13.999985951683693
96,40.000013273216818
135,39.993552801916219
174,39.988960969019768
245,66375407.41994628
536,0.0
2,1, 1, 1, 0, 8, 0.00,60.00,Sunday
7,14.000026145486079
8,13.999903663730928
9,13.99986828985294
96,39.99999904250572
135,39.99448240426237
174,39.98914841268734
245,65746440.55144576
536,0.0
2,1, 1, 1, 0, 9, 0.00,60.00,Sunday
7,14.000013672576646
8,13.999996418524887
9,13.999986643320494
96,39.99997060664159
135,39.99504152096022
174,39.98851354089589
245,65146243.53893298
536,0.0
2,1, 1, 1, 0,10, 0.00,60.00,Sunday
7,13.999952532148575
8,14.000040898702869
9,13.999893661426033
96,40.00001211641863
135,39.99567178267969
174,39.98806466862975
245,64514380.61384711
536,0.0
2,1, 1, 1, 0,11, 0.00,60.00,Sunday
7,13.999900575993614
8,13.999947370462176
9,14.00001182617056
96,39.99996532783919
135,39.99641648735086
174,39.98766277457779
245,63976494.12289589
536,0.0
2,1, 1, 1, 0,12, 0.00,60.00,Sunday
7,14.0000169342516
8,13.999903653797935
9,13.999894666021782
96,40.00002418207336
135,39.99760895572942
174,39.988560738637087
245,63345746.92378244
536,0.0
2,1, 1, 1, 0,13, 0.00,60.00,Sunday
7,14.000033239477885
8,14.000026208825096
9,14.000051147606316
96,39.99996018489841
135,39.99820439846061
174,39.98745037237301
245,62711598.282240528
536,0.0
2,1, 1, 1, 0,14, 0.00,60.00,Sunday
7,13.999948651019626
8,13.999995212909074
9,13.99995377855168
96,39.99998342378485
135,39.9989944189255
174,39.98654898148893
245,62157752.768196079
536,0.0
2,1, 1, 1, 0,15, 0.00,60.00,Sunday
7,13.999885669736989
8,13.99986902552685
9,14.000049926655672
96,40.0035397600768
135,40.003329372851919
174,39.98902645128098
245,61576153.12639626
536,0.0
2,1, 1, 1, 0,16, 0.00,60.00,Sunday
7,14.000037352249292
8,14.000054246169548
9,13.999961023038712
96,40.02262275137903
135,40.0228373665947
174,40.00879596245421
245,61137536.498631577
536,0.0
2,1, 1, 1, 0,17, 0.00,60.00,Sunday
7,13.99991152668012
8,13.999966801285469
9,13.999932187831197
96,40.06605685428516
135,40.066513326745269
174,40.052540930296149
245,60704782.870788108
536,0.0
2,1, 1, 1, 0,18, 0.00,60.00,Sunday
7,14.000014960581576
8,13.999898608952691
9,13.999959169186049
96,40.13249448270706
135,40.13353069302234
174,40.12039596642724
245,60286745.31342692
536,0.0
2,1, 1, 1, 0,19, 0.00,60.00,Sunday
7,13.999981621992811
8,14.00002283429615
9,13.99992575045409
96,40.229488215013578
135,40.23003843204292
174,40.21891790734556
245,59869983.12448596
536,0.0
2,1, 1, 1, 0,20, 0.00,60.00,Sunday
7,13.99984139344168
8,13.999881004039488
9,14.000039515365808
96,40.35090127118886
135,40.35116711663275
174,40.3410339998497
245,59451438.69876242
536,0.0
2,1, 1, 1, 0,21, 0.00,60.00,Sunday
7,14.000050663191463
8,14.000026021201754
9,13.999959160597364
96,40.47890747434205
135,40.478837624808289
174,40.470900933932067
245,59030808.87184004
536,0.0
2,1, 1, 1, 0,22, 0.00,60.00,Sunday
7,13.99992011998362
8,13.999958230391402
9,13.999927529379792
96,40.59585993047183
135,40.595005282757067
174,40.58799112592407
245,58603255.417163219
536,0.0
2,1, 1, 1, 0,23, 0.00,60.00,Sunday
7,13.999967202852576
8,13.999952790399322
9,13.999933423373938
96,40.6918336933271
135,40.69036473914472
174,40.68366536392339
245,58208221.73331104
536,0.0
2,1, 1, 1, 0,24, 0.00,60.00,Sunday
7,13.999954659477412
8,13.999988277538782
9,13.99998274127991
96,40.78059840758273
135,40.77827166358528
174,40.772070162373527
245,57833585.780727338
536,0.0
3,1, 1, 1, 0,Sunday
246,1521174172.4079679,1920655.3698594934,24,48,2337199.86533888, 2,16
537,0.0,0.0, 1, 2,0.0, 1, 2
2,2, 1, 2, 0, 1, 0.00,60.00,Monday
7,13.999901002019012
8,13.999892672087386
9,14.000001947973816
96,40.85001553249044
135,40.84713887140963
174,40.8411366373962
245,57459498.69175616
536,0.0
2,2, 1, 2, 0, 2, 0.00,60.00,Monday
7,14.000018060804673
8,14.00001560323421
9,13.999897871509875
96,40.919858768851629
135,40.916494933049978
174,40.91154508290189
245,57102920.305923078
536,0.0
2,2, 1, 2, 0, 3, 0.00,60.00,Monday
7,13.999870580951896
8,13.999868290752362
9,13.99993827138007
96,40.980775617546239
135,40.9768604006855
174,40.97154007222598
245,56745007.85835443
536,0.0
2,2, 1, 2, 0, 4, 0.00,60.00,Monday
7,14.000014946603696
8,14.000011056341533
9,14.00000657660995
96,41.03122338320413
135,41.026836258441949
174,41.02176801395809
245,56375942.30622895
536,0.0
2,2, 1, 2, 0, 5, 0.00,60.00,Monday
7,13.999866507753316
8,13.999867938356678
9,13.999989266035252
96,41.101135207572919
135,41.09640903512737
174,41.09205883780976
245,55981172.67459743
536,0.0
2,2, 1, 2, 0, 6, 0.00,60.00,Monday
7,14.000034884429608
8,14.00003554914672
9,13.999908301585333
96,41.161115661120359
135,41.156038870039228
174,41.15303042889313
245,55605773.56615749
536,0.0
2,2, 1, 2, 0, 7, 0.00,60.00,Monday
7,13.999883509284809
8,13.99988785860404
9,13.999956291738203
96,41.24749504716159
135,41.24214851863333
174,41.240160840440669
245,55239993.48429353
536,0.0
2,2, 1, 2, 0, 8, 0.00,60.00,Monday
7,14.000029838868123
8,14.00006245297348
9,14.000009872361867
96,41.365222486305118
135,41.35947950067666
174,41.35975494985205
245,54931361.29323674
536,0.0
2,2, 1, 2, 0, 9, 0.00,60.00,Monday
7,13.999904337418503
8,13.999875132820984
9,13.999947996508073
96,41.4820627117585
135,41.47588813930978
174,41.47723590127448
245,54553085.71941842
536,0.0
2,2, 1, 2, 0,10, 0.00,60.00,Monday
7,14.000009375964359
8,14.000015396698606
9,13.999917800498159
96,41.63850279288901
135,41.63196994589939
174,41.63685604987257
245,54138894.363677758
536,0.0
2,2, 1, 2, 0,11, 0.00,60.00,Monday
7,13.999909619248952
8,13.999913739419665
9,13.999898016244437
96,41.81742897002224
135,41.81046730700029
174,41.819070751573217
245,53702425.465551819
536,0.0
2,2, 1, 2, 0,12, 0.00,60.00,Monday
7,13.999950828916525
8,13.999999076812549
9,13.999995168317599
96,42.03601446337512
135,42.02853980539596
174,42.04209959212838
245,53331171.03914259
536,0.0
2,2, 1, 2, 0,13, 0.00,60.00,Monday
7,13.999930889253982
8,13.999889600661259
9,13.999983163137483
96,42.2058786598517
135,42.19743117867684
174,42.21260478403979
245,52967772.85808302
536,0.0
2,2, 1, 2, 0,14, 0.00,60.00,Monday
7,13.99993906939022
8,13.999993207842076
9,13.999940109076017
96,42.32238763959531
135,42.31235731346418
174,42.32780155424785
245,52608868.67072145
536,0.0
2,2, 1, 2, 0,15, 0.00,60.00,Monday
7,13.999966134054946
8,13.999902363910867
9,13.999860521843277
96,42.37395746817834
135,42.36273512147452
174,42.37574687190438
245,52279879.486381079
536,0.0
2,2, 1, 2, 0,16, 0.00,60.00,Monday
7,13.999986515961926
8,14.00000750903578
9,14.000042312259192
96,42.40644085102076
135,42.393940347447578
174,42.404937532943268
245,51968552.69295969
536,0.0
2,2, 1, 2, 0,17, 0.00,60.00,Monday
7,13.999876012284434
8,13.999932696258556
9,13.999948651472242
96,42.434579789250758
135,42.42128021284359
174,42.431800826993107
245,51657215.79685243
536,0.0
2,2, 1, 2, 0,18, 0.00,60.00,Monday
7,13.99998483218906
8,13.999947937926152
9,13.999853732580148
96,42.50901409156897
135,42.495911096973937
174,42.508415427634847
245,51349484.710505548
536,0.0
2,2, 1, 2, 0,19, 0.00,60.00,Monday
7,13.999876341516066
8,13.99995984993668
9,13.999999962511226
96,42.634749197019569
135,42.62129691746226
174,42.637008751946208
245,51038741.45966449
536,0.0
2,2, 1, 2, 0,20, 0.00,60.00,Monday
7,13.99997577085076
8,13.99991240657526
9,13.999943622727749
96,42.797184874359597
135,42.784174125642127
174,42.80404115537206
245,50717736.623807918
536,0.0
2,2, 1, 2, 0,21, 0.00,60.00,Monday
7,13.999926213378198
8,13.999964328262442
9,13.999899070408637
96,42.96435810213182
135,42.95052920172191
174,42.97384532565795
245,50369146.93065672
536,0.0
2,2, 1, 2, 0,22, 0.00,60.00,Monday
7,13.999994229654254
8,13.999906797169153
9,13.999886535575241
96,43.108816081971607
135,43.09441715735202
174,43.11903971911421
245,50028445.57148949
536,0.0
2,2, 1, 2, 0,23, 0.00,60.00,Monday
7,13.99994544065302
8,13.999960770930662
9,13.999991845884951
96,43.19749802580106
135,43.18151782463527
174,43.20541967030496
245,49699485.243210088
536,0.0
2,2, 1, 2, 0,24, 0.00,60.00,Monday
7,13.99993752820399
8,13.999967066027658
9,13.999967101178898
96,43.24024015543223
135,43.22296163725416
174,43.24541516376874
245,49390902.12662417
536,0.0
3,2, 1, 2, 0,Monday
246,1279243478.9392954,1637486.6811688739,24,58,1921261.9788128886, 1, 2
537,0.0,0.0, 1, 2,0.0, 1, 2
2,3, 1, 3, 0, 1, 0.00,60.00,Tuesday
7,13.999972139114166
8,13.999984015900026
9,13.999880647409743
96,43.24187761622696
135,43.22367915662665
174,43.24425370348345
245,49096310.39500682
536,0.0
2,3, 1, 3, 0, 2, 0.00,60.00,Tuesday
7,13.99986441279491
8,13.999954874032613
9,13.999965091834828
96,43.25699442996036
135,43.23835029884021
174,43.25785977173055
245,48813874.839233148
536,0.0
2,3, 1, 3, 0, 3, 0.00,60.00,Tuesday
7,14.000007696933784
8,13.999871609275897
9,13.999987313589429
96,43.286802024531507
135,43.26860106882369
174,43.28806369792991
245,48559479.80749481
536,0.0
2,3, 1, 3, 0, 4, 0.00,60.00,Tuesday
7,13.999966231133606
8,14.000003562742738
9,13.999840598200617
96,43.342741633803168
135,43.32418933510454
174,43.34540324763342
245,48289140.546223308
536,0.0
2,3, 1, 3, 0, 5, 0.00,60.00,Tuesday
7,13.999953389921055
8,13.99995900335094
9,14.000018879827979
96,43.397011302326337
135,43.378342013484459
174,43.39955360872083
245,47998612.64386287
536,0.0
2,3, 1, 3, 0, 6, 0.00,60.00,Tuesday
7,13.99991918857291
8,13.99995215899177
9,13.999950729172245
96,43.47375536837567
135,43.45481503653339
174,43.47723720571326
245,47712961.6937516
536,0.0
2,3, 1, 3, 0, 7, 0.00,60.00,Tuesday
7,13.999932759951184
8,13.999917448303787
9,13.999866628665128
96,43.57170909248498
135,43.552761037522127
174,43.576638124197788
245,47424700.544544149
536,0.0
2,3, 1, 3, 0, 8, 0.00,60.00,Tuesday
7,14.000003141561788
8,13.999959877290225
9,14.000015339283975
96,43.630649877590418
135,43.61101998229079
174,43.63417893636452
245,47153263.92277446
536,0.0
2,3, 1, 3, 0, 9, 0.00,60.00,Tuesday
7,13.999950236323583
8,13.9999786325768
9,13.999932730003899
96,43.61453879397706
135,43.5935469676363
174,43.614109652201019
245,46885579.22224574
536,0.0
2,3, 1, 3, 0,10, 0.00,60.00,Tuesday
7,13.999957920757252
8,13.999962396920493
9,13.999886789666253
96,43.5193122712304
135,43.497118453662718
174,43.51286224447422
245,46599866.4734333
536,0.0
2,3, 1, 3, 0,11, 0.00,60.00,Tuesday
7,13.99993069762664
8,13.999928459959304
9,14.000041327631655
96,43.36143653876632
135,43.338419683323838
174,43.34798976108108
245,46295167.86046408
536,0.0
2,3, 1, 3, 0,12, 0.00,60.00,Tuesday
7,14.00003143557208
8,14.000053323414388
9,13.999911583009846
96,43.13575180495663
135,43.112128109165059
174,43.11631875753533
245,46036486.13785367
536,0.0
2,3, 1, 3, 0,13, 0.00,60.00,Tuesday
7,13.99998768589519
8,13.999982355520928
9,13.99998128151221
96,42.93798428337257
135,42.915231042235777
174,42.91592784175059
245,45791986.06908375
536,0.0
2,3, 1, 3, 0,14, 0.00,60.00,Tuesday
7,13.99993923747923
8,13.999928334792625
9,14.000016143571932
96,42.75584371988134
135,42.73412732989352
174,42.732356343521448
245,45527096.75983356
536,0.0
2,3, 1, 3, 0,15, 0.00,60.00,Tuesday
7,13.999995588783813
8,14.000058820538225
9,13.999899670527239
96,42.577326277794778
135,42.55641901667946
174,42.552921631246658
245,45286520.99906409
536,0.0
2,3, 1, 3, 0,16, 0.00,60.00,Tuesday
7,14.000034942945128
8,13.999933946663634
9,14.000065652099276
96,42.38403063222266
135,42.36454878982259
174,42.35736360465622
245,45102886.90555227
536,0.0
2,3, 1, 3, 0,17, 0.00,60.00,Tuesday
7,13.999893779847247
8,14.000011913827759
9,13.999962924707717
96,42.226357896696978
135,42.20774830308599
174,42.19997884259428
245,44907718.520809609
536,0.0
2,3, 1, 3, 0,18, 0.00,60.00,Tuesday
7,14.00006629492095
8,13.999988331399415
9,13.999972419533249
96,42.057369296711168
135,42.04049597623827
174,42.03092656591074
245,44723369.58147852
536,0.0
2,3, 1, 3, 0,19, 0.00,60.00,Tuesday
7,13.999916283636896
8,13.999957687971423
9,14.000030690341135
96,41.8669773704813
135,41.850520410256837
174,41.83787563098228
245,44508568.673497188
536,0.0
2,3, 1, 3, 0,20, 0.00,60.00,Tuesday
7,14.000058222461416
8,14.000036365692603
9,13.999933137815609
96,41.69464706411214
135,41.67959170765958
174,41.66566969366419
245,44293219.62877823
536,0.0
2,3, 1, 3, 0,21, 0.00,60.00,Tuesday
7,13.999990073119959
8,13.999925215317222
9,13.999978442712083
96,41.554023877869209
135,41.54058556847388
174,41.52557793969863
245,44050662.578822847
536,0.0
2,3, 1, 3, 0,22, 0.00,60.00,Tuesday
7,13.999917132892575
8,14.00000774819588
9,14.00000634729359
96,41.46273531081485
135,41.45053490335493
174,41.4364545034578
245,43795496.153140719
536,0.0
2,3, 1, 3, 0,23, 0.00,60.00,Tuesday
7,14.000067279970502
8,14.000023390230018
9,13.999962785806045
96,41.41521681214513
135,41.405307800381248
174,41.393659081070499
245,43581500.77024039
536,0.0
2,3, 1, 3, 0,24, 0.00,60.00,Tuesday
7,13.99995844234763
8,13.999896978585216
9,13.99999145922118
96,41.45196348499986
135,41.44438929057187
174,41.43717571383321
245,43344353.29984843
536,0.0
3,3, 1, 3, 0,Tuesday
246,1105778824.0270379,1440481.4594140624,24,56,1644735.0162029463, 1, 4
537,0.0,0.0, 1, 2,0.0, 1, 2
2,4, 1, 4, 0, 1, 0.00,60.00,Wednesday
7,13.999896566815455
8,14.000039103295756
9,13.999900713280772
96,41.56487219242616
135,41.55867592755779
174,41.55752731311613
245,43087951.62631237
536,0.0
2,4, 1, 4, 0, 2, 0.00,60.00,Wednesday
7,14.000024771942629
8,13.999933132791549
9,14.000024082830102
96,41.704488684667968
135,41.699781329089237
174,41.70234803649799
245,42849880.40278945
536,0.0
2,4, 1, 4, 0, 3, 0.00,60.00,Wednesday
7,13.999903734216002
8,13.999948541970828
9,13.999950247691011
96,41.82790037719396
135,41.82256745722342
174,41.82779728359924
245,42639292.90240998
536,0.0
2,4, 1, 4, 0, 4, 0.00,60.00,Wednesday
7,13.99995439774368
8,13.999990598602182
9,13.999879251958193
96,41.938956305439429
135,41.933439711191898
174,41.94060270385291
245,42454196.03762721
536,0.0
2,4, 1, 4, 0, 5, 0.00,60.00,Wednesday
7,13.999985873131133
8,13.999889296374933
9,14.000070013036611
96,42.089078489161348
135,42.08391667850201
174,42.09335702341475
245,42263666.371369037
536,0.0
2,4, 1, 4, 0, 6, 0.00,60.00,Wednesday
7,13.999895074508727
8,14.000001633164033
9,13.999847316388069
96,42.30502441557992
135,42.30005215430232
174,42.31560369976122
245,42087284.43790444
536,0.0
2,4, 1, 4, 0, 7, 0.00,60.00,Wednesday
7,14.000000525364838
8,13.999891989131822
9,13.999942649845624
96,42.540823934457247
135,42.53605517197563
174,42.5564035924031
245,41917510.85287364
536,0.0
2,4, 1, 4, 0, 8, 0.00,60.00,Wednesday
7,13.99987113780209
8,13.999981019448019
9,14.00001441674225
96,42.77742485943837
135,42.77162923197156
174,42.79604006622501
245,41731975.20432104
536,0.0
2,4, 1, 4, 0, 9, 0.00,60.00,Wednesday
7,14.00002108457121
8,13.999884391521024
9,13.999800073299758
96,43.0033388239021
135,42.99705479358771
174,43.02563672319868
245,41534970.53483155
536,0.0
2,4, 1, 4, 0,10, 0.00,60.00,Wednesday
7,13.999857915407878
8,14.000016685846778
9,14.00003623128302
96,43.217678450795677
135,43.20958214077543
174,43.24059618981192
245,41348330.202603738
536,0.0
2,4, 1, 4, 0,11, 0.00,60.00,Wednesday
7,14.000029369089193
8,13.999840076133625
9,13.999929343711897
96,43.40025452133255
135,43.391703751898159
174,43.42447895090956
245,41141525.90155696
536,0.0
2,4, 1, 4, 0,12, 0.00,60.00,Wednesday
7,13.999858385537153
8,14.000029665328596
9,13.999824563435967
96,43.54337075177253
135,43.532428132734867
174,43.567467866009227
245,40950691.47550217
536,0.0
2,4, 1, 4, 0,13, 0.00,60.00,Wednesday
7,14.000026027861415
8,13.999832955468154
9,14.000091820904382
96,43.667418876456078
135,43.65612932766888
174,43.69043803532256
245,40772874.92679891
536,0.0
2,4, 1, 4, 0,14, 0.00,60.00,Wednesday
7,13.99983532321839
8,14.00003811743419
9,13.999883385348632
96,43.78844649326027
135,43.77498514371844
174,43.811440390202168
245,40609148.04787815
536,0.0
2,4, 1, 4, 0,15, 0.00,60.00,Wednesday
7,14.000034869691824
8,13.999882467039868
9,13.999805778501563
96,43.94668420921577
135,43.93372303859637
174,43.97332994366173
245,40451405.57071976
536,0.0
2,4, 1, 4, 0,16, 0.00,60.00,Wednesday
7,13.999839805349442
8,13.999961288118739
9,14.000057599782102
96,44.17247624904849
135,44.15879071249742
174,44.20243758826883
245,40294835.54869864
536,0.0
2,4, 1, 4, 0,17, 0.00,60.00,Wednesday
7,14.000041998898612
8,13.999969751890527
9,13.999923548459004
96,44.37113103301885
135,44.35649489626742
174,44.40255575489987
245,40136581.62759656
536,0.0
2,4, 1, 4, 0,18, 0.00,60.00,Wednesday
7,13.999866312875027
8,13.999851633255135
9,13.999821333957856
96,44.402319384169967
135,44.38422611705121
174,44.424858371478148
245,39982725.19796042
536,0.0
2,4, 1, 4, 0,19, 0.00,60.00,Wednesday
7,14.000005921915295
8,14.000045923529939
9,14.000057451080645
96,44.39276871336729
135,44.37201919344154
174,44.408536338160178
245,39857804.3482454
536,0.0
2,4, 1, 4, 0,20, 0.00,60.00,Wednesday
7,13.999937433637508
8,13.999857442016693
9,13.999964557877659
96,44.377989566650388
135,44.356476204770668
174,44.38993729839479
245,39685292.02285432
536,0.0
2,4, 1, 4, 0,21, 0.00,60.00,Wednesday
7,13.999947216399537
8,14.000060878417028
9,13.999831785034387
96,44.33600606653738
135,44.312730441097858
174,44.34442928167047
245,39519667.87863897
536,0.0
2,4, 1, 4, 0,22, 0.00,60.00,Wednesday
7,13.999990227006963
8,13.999850699322368
9,14.000080274245523
96,44.267893965353248
135,44.244595762767229
174,44.271738594680559
245,39353782.67115594
536,0.0
2,4, 1, 4, 0,23, 0.00,60.00,Wednesday
7,13.999887585012497
8,14.000035025756626
9,13.999972921359593
96,44.194693864662557
135,44.170168065855289
174,44.19540289192021
245,39205852.39216607
536,0.0
2,4, 1, 4, 0,24, 0.00,60.00,Wednesday
7,14.00006164170569
8,13.99998624190271
9,13.999829543496912
96,44.11010957426575
135,44.08619478005779
174,44.109972538765507
245,39062841.55590318
536,0.0
3,4, 1, 4, 0,Wednesday
246,982940087.7387184,1296943.697015977,24,52,1441006.2043149912, 1, 2
537,0.0,0.0, 1, 2,0.0, 1, 2
2,5, 1, 5, 0, 1, 0.00,60.00,Thursday
7,13.999871146035165
8,13.999870090211362
9,14.000063830428742
96,44.010861829715079
135,43.98710054575346
174,44.007918658869929
245,38915856.939091447
536,0.0
2,5, 1, 5, 0, 2, 0.00,60.00,Thursday
7,14.000074615345178
8,14.000061437549082
9,14.000011473645364
96,43.889206849610378
135,43.865386162363488
174,43.8837617829987
245,38765856.9971275
536,0.0
2,5, 1, 5, 0, 3, 0.00,60.00,Thursday
7,13.999956115896096
8,13.999897331672655
9,13.999839985282826
96,43.75019670177915
135,43.726753381313439
174,43.74207010366975
245,38638540.95224354
536,0.0
2,5, 1, 5, 0, 4, 0.00,60.00,Thursday
7,13.999929155828742
8,14.00000107309553
9,14.000029405703496
96,43.604201469469469
135,43.581084615743097
174,43.593792408592779
245,38511368.41779138
536,0.0
2,5, 1, 5, 0, 5, 0.00,60.00,Thursday
7,14.000037790936677
8,13.999971419111132
9,13.999993508161838
96,43.52041847981026
135,43.499685240854649
174,43.513850835246199
245,38344424.82643488
536,0.0
2,5, 1, 5, 0, 6, 0.00,60.00,Thursday
7,13.999841524811404
8,13.999870279695314
9,13.999845795962037
96,43.55003352098341
135,43.532397240441728
174,43.55280736107786
245,38184248.141896579
536,0.0
2,5, 1, 5, 0, 7, 0.00,60.00,Thursday
7,14.00004821752792
8,14.00004364405265
9,14.00000901814004
96,43.62936864571468
135,43.61461543844346
174,43.64206755252995
245,38028902.107585679
536,0.0
2,5, 1, 5, 0, 8, 0.00,60.00,Thursday
7,13.999843501502778
8,13.999828389467972
9,13.99998801635569
96,43.72265988503526
135,43.70976852667991
174,43.741487824700588
245,37864101.216481659
536,0.0
2,5, 1, 5, 0, 9, 0.00,60.00,Thursday
7,14.000026820850416
8,14.000060817430035
9,13.999855601319249
96,43.79219956440299
135,43.77952662008009
174,43.8145993620809
245,37730535.21946202
536,0.0
2,5, 1, 5, 0,10, 0.00,60.00,Thursday
7,13.999959688841067
8,13.999920352308248
9,13.999969391687256
96,43.80697120793193
135,43.79396696591325
174,43.82802534163715
245,37585208.396981608
536,0.0
2,5, 1, 5, 0,11, 0.00,60.00,Thursday
7,13.999891304934904
8,13.999906086533717
9,13.999990481996998
96,43.87101867530372
135,43.858318436821829
174,43.89416841873991
245,37429825.9430579
536,0.0
2,5, 1, 5, 0,12, 0.00,60.00,Thursday
7,13.99996463726268
8,13.99997386089236
9,13.999851638205382
96,44.027001374782447
135,44.01590144880448
174,44.05876975521844
245,37240368.27247348
536,0.0
2,5, 1, 5, 0,13, 0.00,60.00,Thursday
7,13.999899027488994
8,13.999891026910515
9,13.999996332524113
96,44.33134762576
135,44.32303557748887
174,44.37685464560828
245,37037485.30894874
536,0.0
2,5, 1, 5, 0,14, 0.00,60.00,Thursday
7,13.99989229474041
8,13.999901363427562
9,13.999901054996683
96,44.703197695013617
135,44.696606649852018
174,44.76240118862414
245,36816411.04779337
536,0.0
2,5, 1, 5, 0,15, 0.00,60.00,Thursday
7,13.999808166493184
8,13.999787793895982
9,13.999771497134894
96,45.05108066237598
135,45.04370127215902
174,45.115905044539228
245,36681018.831669908
536,0.0
2,5, 1, 5, 0,16, 0.00,60.00,Thursday
7,14.000067281839965
8,14.000041715048467
9,13.999947029767706
96,45.24244050805454
135,45.23105017967047
174,45.3008737526638
245,36633902.56195747
536,0.0
2,5, 1, 5, 0,17, 0.00,60.00,Thursday
7,13.999948651185365
8,13.999998828202634
9,14.000062798232199
96,45.37660772599763
135,45.361250463555609
174,45.42721438164763
245,36526038.648977059
536,0.0
2,5, 1, 5, 0,18, 0.00,60.00,Thursday
7,13.999831363999329
8,13.999797830796313
9,13.999956646414287
96,45.43206189336686
135,45.41328439999526
174,45.47376617460829
245,36396794.419643659
536,0.0
2,5, 1, 5, 0,19, 0.00,60.00,Thursday
7,14.000050550048409
8,14.000018893196798
9,13.999837999586946
96,45.41426143991512
135,45.392399813076988
174,45.44817573074855
245,36292923.070055548
536,0.0
2,5, 1, 5, 0,20, 0.00,60.00,Thursday
7,13.999937121024793
8,14.000003066891454
9,13.999941264351769
96,45.36439115715519
135,45.339963349956047
174,45.3910554738856
245,36168896.73500058
536,0.0
2,5, 1, 5, 0,21, 0.00,60.00,Thursday
7,13.999877128627196
8,13.999827466621819
9,14.000042519355981
96,45.289338069413549
135,45.263881153413098
174,45.31006751238894
245,36030410.36634207
536,0.0
2,5, 1, 5, 0,22, 0.00,60.00,Thursday
7,14.000061098311316
8,14.000057689316316
9,13.999944976965273
96,45.22378406004673
135,45.1980937516801
174,45.243318643248198
245,35905841.567846488
536,0.0
2,5, 1, 5, 0,23, 0.00,60.00,Thursday
7,13.99990371661857
8,13.999945736351556
9,13.999831810287953
96,45.17334828068614
135,45.147925302022418
174,45.19283614643152
245,35773991.92372866
536,0.0
2,5, 1, 5, 0,24, 0.00,60.00,Thursday
7,13.99990799592614
8,13.999850301235988
9,14.000040490742729
96,45.180128311274938
135,45.15624978014582
174,45.20238421504848
245,35654483.19790389
536,0.0
3,5, 1, 5, 0,Thursday
246,893157435.1104943,1185521.0711142105,24,58,1302580.3050532067, 1, 2
537,0.0,0.0, 1, 2,0.0, 1, 2
2,6, 1, 6, 0, 1, 0.00,60.00,Friday
7,14.000017777670744
8,14.000056865006778
9,13.999959394030404
96,45.206678368550239
135,45.18368316498218
174,45.23251673229738
245,35530721.7577849
536,0.0
2,6, 1, 6, 0, 2, 0.00,60.00,Friday
7,13.999877039597078
8,13.999931463660456
9,13.999948208409672
96,45.2441778646743
135,45.22146037926727
174,45.271060653800947
245,35401263.84318969
536,0.0
2,6, 1, 6, 0, 3, 0.00,60.00,Friday
7,13.999990474297073
8,13.999874828684826
9,13.999884203729659
96,45.2503393241125
135,45.22757825587532
174,45.27548427475581
245,35273489.77750797
536,0.0
2,6, 1, 6, 0, 4, 0.00,60.00,Friday
7,14.000005955501909
8,14.000089008416995
9,14.000069660940337
96,45.2295461282682
135,45.20495686544722
174,45.24924432743656
245,35170045.89840547
536,0.0
2,6, 1, 6, 0, 5, 0.00,60.00,Friday
7,13.999907257431289
8,13.999973419060199
9,13.999977181858805
96,45.13872495927921
135,45.11202505364318
174,45.14990887778151
245,35054023.248905908
536,0.0
2,6, 1, 6, 0, 6, 0.00,60.00,Friday
7,13.999947131622957
8,13.999848708674419
9,13.99995529861758
96,45.031419510415798
135,45.00377772485228
174,45.03562361790656
245,34944555.19764438
536,0.0
2,6, 1, 6, 0, 7, 0.00,60.00,Friday
7,14.000095859594078
8,14.000014079876314
9,13.999843232055998
96,44.819781794002469
135,44.789326909081157
174,44.81119309303651
245,34869035.810462649
536,0.0
2,6, 1, 6, 0, 8, 0.00,60.00,Friday
7,13.99997246554356
8,14.000073463465734
9,14.000081689923724
96,44.55053577594179
135,44.517399648380877
174,44.52815782562903
245,34767511.599717158
536,0.0
2,6, 1, 6, 0, 9, 0.00,60.00,Friday
7,13.999935981576592
8,13.99989624057028
9,14.000000399574312
96,44.34822826397359
135,44.31602194518636
174,44.321829787616277
245,34611059.10378327
536,0.0
2,6, 1, 6, 0,10, 0.00,60.00,Friday
7,14.000035590747796
8,14.000045158766751
9,13.999887037074638
96,44.25910464346982
135,44.229734304324278
174,44.23811572779514
245,34458483.44672739
536,0.0
2,6, 1, 6, 0,11, 0.00,60.00,Friday
7,13.999892034169366
8,13.999962156070245
9,14.000020351761185
96,44.26098429994964
135,44.235300469597309
174,44.24936951516086
245,34314849.81587178
536,0.0
2,6, 1, 6, 0,12, 0.00,60.00,Friday
7,14.00002293506615
8,13.99987505778251
9,13.999962034350242
96,44.33105376644044
135,44.31021830493606
174,44.33258783377669
245,34174412.20868354
536,0.0
2,6, 1, 6, 0,13, 0.00,60.00,Friday
7,13.999983708705465
8,14.000056939710847